                         Program Version 5.0.4 -  RELEASE  -
|  1> !B3LYP D3 DEF2-SVP KEEPDENS
|  2>
|  3> * xyz -1 2
|  4>   C   -2.22228878158883      3.02859625455643     -0.21035396487253
|  5>   C   -2.50830439779609      1.54791789780224      0.07602730919541
|  6>   O   -1.28019171891555      0.86292489456393     -0.19752365471928
|  7>   H   -3.29279866693753      1.11226368229766     -0.55882412139207
|  8>   H   -2.78129033761928      1.38083967617559      1.13343223202784
|  9>   C   -0.73508193412564      3.12413342164026      0.12809792804256
| 10>   H   -2.86397098602036      3.70229449871120      0.37527275872271
| 11>   H   -2.38623672040265      3.24574776644390     -1.27800975944110
| 12>   C   -0.21849123873636      1.71461968337449     -0.15303530810893
| 13>   H   -0.56392689440653      3.33449540230340      1.19850628759754
| 14>   H   -0.16145763230755      3.86205509865162     -0.44841287057201
| 15>   O   0.91007930885637      1.34911172347926     -0.30702683648014
| 16> **                         ****END OF INPUT****

CARTESIAN COORDINATES (ANGSTROEM)
---------------------------------
  C     -2.222289    3.028596   -0.210354
  C     -2.508304    1.547918    0.076027
  O     -1.280192    0.862925   -0.197524
  H     -3.292799    1.112264   -0.558824
  H     -2.781290    1.380840    1.133432
  C     -0.735082    3.124133    0.128098
  H     -2.863971    3.702294    0.375273
  H     -2.386237    3.245748   -1.278010
  C     -0.218491    1.714620   -0.153035
  H     -0.563927    3.334495    1.198506
  H     -0.161458    3.862055   -0.448413
  O      0.910079    1.349112   -0.307027

 Total Charge           Charge          ....   -1
 Multiplicity           Mult            ....    2
 Number of Electrons    NEL             ....   47
 Basis Dimension        Dim             ....  114

ORBITAL ENERGIES
----------------
                 SPIN UP ORBITALS
  NO   OCC          E(Eh)            E(eV)
   0   1.0000     -18.946593      -515.5630
   1   1.0000     -18.868448      -513.4366
   2   1.0000     -10.061038      -273.7748
   3   1.0000     -10.044807      -273.3331
   4   1.0000     -10.007468      -272.3170
   5   1.0000      -9.992951      -271.9220
   6   1.0000      -0.866162       -23.5695
   7   1.0000      -0.778083       -21.1727
   8   1.0000      -0.593503       -16.1500
   9   1.0000      -0.518570       -14.1110
  10   1.0000      -0.418657       -11.3922
  11   1.0000      -0.348663        -9.4876
  12   1.0000      -0.315532        -8.5861
  13   1.0000      -0.300301        -8.1716
  14   1.0000      -0.239097        -6.5061
  15   1.0000      -0.234424        -6.3790
  16   1.0000      -0.210479        -5.7274
  17   1.0000      -0.189432        -5.1547
  18   1.0000      -0.178118        -4.8468
  19   1.0000      -0.149167        -4.0591
  20   1.0000      -0.144594        -3.9346
  21   1.0000      -0.088413        -2.4058
  22   1.0000      -0.043605        -1.1865
  23   1.0000       0.169657         4.6166
  24   0.0000       0.210039         5.7155
  25   0.0000       0.240990         6.5577
  26   0.0000       0.251288         6.8379
  27   0.0000       0.268872         7.3164
  28   0.0000       0.303647         8.2627

                 SPIN DOWN ORBITALS
  NO   OCC          E(Eh)            E(eV)
   0   1.0000     -18.944619      -515.5093
   1   1.0000     -18.864259      -513.3226
   2   1.0000     -10.060440      -273.7585
   3   1.0000     -10.039024      -273.1757
   4   1.0000     -10.006172      -272.2818
   5   1.0000      -9.992977      -271.9227
   6   1.0000      -0.860917       -23.4267
   7   1.0000      -0.771139       -20.9838
   8   1.0000      -0.590823       -16.0771
   9   1.0000      -0.514056       -13.9882
  10   1.0000      -0.415160       -11.2971
  11   1.0000      -0.342603        -9.3227
  12   1.0000      -0.309592        -8.4244
  13   1.0000      -0.297768        -8.1027
  14   1.0000      -0.234404        -6.3785
  15   1.0000      -0.226205        -6.1554
  16   1.0000      -0.198686        -5.4065
  17   1.0000      -0.185275        -5.0416
  18   1.0000      -0.174643        -4.7523
  19   1.0000      -0.145413        -3.9569
  20   1.0000      -0.135811        -3.6956
  21   1.0000      -0.070409        -1.9159
  22   1.0000      -0.039738        -1.0813
  23   0.0000       0.214579         5.8390
  24   0.0000       0.241253         6.5648
  25   0.0000       0.256029         6.9669
  26   0.0000       0.257498         7.0069
  27   0.0000       0.280187         7.6243

MULLIKEN ATOMIC CHARGES AND SPIN POPULATIONS
--------------------------------------------
   0 C :    0.097872   -0.025167
   1 C :    0.321138   -0.065281
   2 O :   -0.349393    0.038355
   3 H :   -0.110129    0.062849
   4 H :   -0.103653    0.063667
   5 C :    0.117041   -0.083384
   6 H :   -0.234121    0.209467
   7 H :   -0.098285    0.052288
   8 C :   -0.024165    0.342884
   9 H :   -0.245080    0.274675
  10 H :   -0.049909   -0.001594
  11 O :   -0.321316    0.131240
Sum of atomic charges         :   -1.0000000

LOEWDIN ATOMIC CHARGES AND SPIN POPULATIONS
-------------------------------------------
   0 C :   -0.073234    0.054526
   1 C :    0.070232    0.022544
   2 O :   -0.171239    0.054903
   3 H :   -0.035992    0.029062
   4 H :   -0.044894    0.036754
   5 C :   -0.087582    0.026328
   6 H :   -0.106884    0.123177
   7 H :   -0.026751    0.030238
   8 C :   -0.094592    0.301622
   9 H :   -0.127629    0.174932
  10 H :    0.001779    0.005512
  11 O :   -0.303214    0.140404

  Mayer bond orders larger than 0.100000
B(  0-C ,  1-C ) :   1.0807 B(  0-C ,  5-C ) :   1.0950 B(  0-C ,  6-H ) :   0.7295
B(  0-C ,  7-H ) :   0.8907 B(  1-C ,  2-O ) :   0.9898 B(  1-C ,  3-H ) :   0.8876
B(  1-C ,  4-H ) :   0.8870 B(  2-O ,  8-C ) :   0.9877 B(  5-C ,  8-C ) :   1.0142
B(  5-C ,  9-H ) :   0.6540 B(  5-C , 10-H ) :   0.9415 B(  6-H ,  8-C ) :   0.1275
B(  8-C ,  9-H ) :   0.1107 B(  8-C , 11-O ) :   1.9979

Dispersion correction           -0.015374501
FINAL SINGLE POINT ENERGY      -306.017706546537

DIPOLE MOMENT
-------------
                                X             Y             Z
Electronic contribution:      4.72794      -4.80833      -1.35550
Nuclear contribution   :     -5.63513       4.78017       1.01678
                        -----------------------------------------
Total Dipole Moment    :     -0.90719      -0.02816      -0.33872
                        -----------------------------------------
Magnitude (a.u.)       :      0.96878
Magnitude (Debye)      :      2.46243

Rotational constants in cm-1:     0.242899     0.119204     0.085243
Rotational constants in MHz :  7281.918709  3573.634312  2555.522165

                             ****ORCA TERMINATED NORMALLY****
TOTAL RUN TIME: 0 days 0 hours 3 minutes 57 seconds 638 msec
