                         Program Version 5.0.4 -  RELEASE  -
|  1> !B3LYP DEF2-QZVPP
|  2>
|  3> %scf
|  4> convergence tight
|  5> end
|  6>
|  7> * xyz 1 2
|  8>   C   -7.64955123257574      1.05667496322029      0.00014520838104
|  9>   C   -8.79916351080206      0.24872780425274      0.00008905118997
| 10>   C   -8.67321655981621     -1.13811711906506     -0.00000919817803
| 11>   C   -7.40029987012933     -1.72545521617015     -0.00005668085097
| 12>   C   -6.25283944731800     -0.92603412378881     -0.00000445009069
| 13>   C   -6.37843668408918      0.46455608191688      0.00009149100933
| 14>   H   -9.77661143532832      0.73646330403028      0.00013423090312
| 15>   H   -9.56538097816012     -1.76944944365123     -0.00004787808665
| 16>   H   -7.30398836209473     -2.81446583393220     -0.00013419510464
| 17>   H   -5.26279373559463     -1.38857504724656     -0.00004062474458
| 18>   H   -5.48778053780068      1.10055393291687      0.00013390758895
| 19>   C   -7.78086952931509      2.53411063434570      0.00027982611682
| 20>   O   -8.83232576750578      3.13199127167985     -0.00028240644287
| 21>   H   -6.80289234947011      3.08481879149140     -0.00029828169081
| 22> **                         ****END OF INPUT****

CARTESIAN COORDINATES (ANGSTROEM)
---------------------------------
  C     -7.649551    1.056675    0.000145
  C     -8.799164    0.248728    0.000089
  C     -8.673217   -1.138117   -0.000009
  C     -7.400300   -1.725455   -0.000057
  C     -6.252839   -0.926034   -0.000004
  C     -6.378437    0.464556    0.000091
  H     -9.776611    0.736463    0.000134
  H     -9.565381   -1.769449   -0.000048
  H     -7.303988   -2.814466   -0.000134
  H     -5.262794   -1.388575   -0.000041
  H     -5.487781    1.100554    0.000134
  C     -7.780870    2.534111    0.000280
  O     -8.832326    3.131991   -0.000282
  H     -6.802892    3.084819   -0.000298

 Total Charge           Charge          ....    1
 Multiplicity           Mult            ....    2
 Number of Electrons    NEL             ....   55
 Basis Dimension        Dim             ....  636

ORBITAL ENERGIES
----------------
                 SPIN UP ORBITALS
  NO   OCC          E(Eh)            E(eV)
   0   1.0000     -19.397116      -527.8224
   1   1.0000     -10.490771      -285.4684
   2   1.0000     -10.425326      -283.6876
   3   1.0000     -10.412369      -283.3350
   4   1.0000     -10.405236      -283.1409
   5   1.0000     -10.404253      -283.1141
   6   1.0000     -10.398810      -282.9660
   7   1.0000     -10.384966      -282.5893
   8   1.0000      -1.305464       -35.5235
   9   1.0000      -1.081824       -29.4379
  10   1.0000      -0.987649       -26.8753
  11   1.0000      -0.963807       -26.2265
  12   1.0000      -0.868744       -23.6397
  13   1.0000      -0.824563       -22.4375
  14   1.0000      -0.785780       -21.3822
  15   1.0000      -0.735981       -20.0270
  16   1.0000      -0.703277       -19.1371
  17   1.0000      -0.680058       -18.5053
  18   1.0000      -0.656566       -17.8661
  19   1.0000      -0.647948       -17.6316
  20   1.0000      -0.643579       -17.5127
  21   1.0000      -0.628768       -17.1096
  22   1.0000      -0.585923       -15.9438
  23   1.0000      -0.572237       -15.5714
  24   1.0000      -0.554734       -15.0951
  25   1.0000      -0.520090       -14.1524
  26   1.0000      -0.487350       -13.2615
  27   1.0000      -0.469932       -12.7875
  28   0.0000      -0.288572        -7.8524
  29   0.0000      -0.223874        -6.0919
  30   0.0000      -0.185375        -5.0443
  31   0.0000      -0.127620        -3.4727
  32   0.0000      -0.113153        -3.0791

                 SPIN DOWN ORBITALS
  NO   OCC          E(Eh)            E(eV)
   0   1.0000     -19.385147      -527.4967
   1   1.0000     -10.492062      -285.5035
   2   1.0000     -10.422116      -283.6002
   3   1.0000     -10.409586      -283.2592
   4   1.0000     -10.402871      -283.0765
   5   1.0000     -10.402186      -283.0579
   6   1.0000     -10.399748      -282.9915
   7   1.0000     -10.385627      -282.6073
   8   1.0000      -1.282467       -34.8977
   9   1.0000      -1.075115       -29.2554
  10   1.0000      -0.978467       -26.6254
  11   1.0000      -0.959426       -26.1073
  12   1.0000      -0.861242       -23.4356
  13   1.0000      -0.820411       -22.3245
  14   1.0000      -0.778484       -21.1836
  15   1.0000      -0.726476       -19.7684
  16   1.0000      -0.692749       -18.8507
  17   1.0000      -0.671680       -18.2773
  18   1.0000      -0.649193       -17.6654
  19   1.0000      -0.642605       -17.4862
  20   1.0000      -0.630752       -17.1636
  21   1.0000      -0.627564       -17.0769
  22   1.0000      -0.569115       -15.4864
  23   1.0000      -0.566610       -15.4182
  24   1.0000      -0.552680       -15.0392
  25   1.0000      -0.471111       -12.8196
  26   1.0000      -0.458455       -12.4752
  27   0.0000      -0.417306       -11.3555
  28   0.0000      -0.277522        -7.5517
  29   0.0000      -0.214230        -5.8295
  30   0.0000      -0.173983        -4.7343
  31   0.0000      -0.126557        -3.4438

MULLIKEN ATOMIC CHARGES AND SPIN POPULATIONS
--------------------------------------------
   0 C :    0.141293    0.194644
   1 C :    0.058902    0.185472
   2 C :   -0.047203   -0.041872
   3 C :    0.050800    0.113705
   4 C :   -0.014765    0.194389
   5 C :   -0.005205   -0.057532
   6 H :    0.130750   -0.005391
   7 H :    0.116470    0.001861
   8 H :    0.124516   -0.004405
   9 H :    0.123154   -0.005584
  10 H :    0.101936    0.000747
  11 C :    0.168847   -0.081551
  12 O :   -0.107307    0.438413
  13 H :    0.157812    0.067104
Sum of atomic charges         :    1.0000000

LOEWDIN ATOMIC CHARGES AND SPIN POPULATIONS
-------------------------------------------
   0 C :   -0.071111    0.132629
   1 C :    0.186585    0.137090
   2 C :    0.140868    0.009591
   3 C :    0.177229    0.092982
   4 C :    0.173159    0.134796
   5 C :    0.144303    0.002514
   6 H :   -0.017204    0.012188
   7 H :   -0.025844   -0.001868
   8 H :   -0.019093    0.007108
   9 H :   -0.020340    0.012917
  10 H :   -0.025122   -0.003817
  11 C :   -0.178769    0.070329
  12 O :    0.541271    0.359249
  13 H :   -0.005931    0.034292

  Mayer bond orders larger than 0.100000
B(  0-C ,  1-C ) :   1.0673 B(  0-C ,  5-C ) :   1.2025 B(  0-C , 11-C ) :   1.0182
B(  1-C ,  2-C ) :   1.3229 B(  1-C ,  6-H ) :   0.9352 B(  2-C ,  3-C ) :   1.3181
B(  2-C ,  7-H ) :   0.9530 B(  3-C ,  4-C ) :   1.1974 B(  3-C ,  8-H ) :   0.9475
B(  4-C ,  5-C ) :   1.3179 B(  4-C ,  9-H ) :   0.9487 B(  5-C , 10-H ) :   0.9499
B( 11-C , 12-O ) :   1.8570 B( 11-C , 13-H ) :   0.8935

FINAL SINGLE POINT ENERGY      -345.180374889712

DIPOLE MOMENT
-------------
                                X             Y             Z
Electronic contribution:     -1.29301       3.22057      -0.00141
Nuclear contribution   :      2.09952      -3.87654      -0.00033
                        -----------------------------------------
Total Dipole Moment    :      0.80651      -0.65598      -0.00174
                        -----------------------------------------
Magnitude (a.u.)       :      1.03960
Magnitude (Debye)      :      2.64246

Rotational constants in cm-1:     0.173808     0.051962     0.040003
Rotational constants in MHz :  5210.632863  1557.792854  1199.257712

                             ****ORCA TERMINATED NORMALLY****
TOTAL RUN TIME: 0 days 2 hours 40 minutes 24 seconds 291 msec
