                         Program Version 5.0.4 -  RELEASE  -
|  1> !B3LYP D3 DEF2-SVP KEEPDENS
|  2> * xyz 0 1s
|  3>   C      -4.127240      1.598090      0.000000
|  4>   C      -5.236140      0.753090      0.000000
|  5>   C      -5.058790     -0.629750      0.000000
|  6>   C      -3.772550     -1.167590      0.000000
|  7>   C      -2.663650     -0.322590      0.000000
|  8>   C      -2.840990      1.060250      0.000000
|  9>   H      -4.265550      2.676550      0.000000
| 10>   H      -1.976170      1.719260      0.000000
| 11>   H      -1.660520     -0.742040      0.000000
| 12>   H      -3.634240     -2.246050      0.000000
| 13>   H      -5.923620     -1.288760      0.000000
| 14>   H      -6.239270      1.172540      0.000000
| 15> *
| 16>
| 17>                          ****END OF INPUT****

CARTESIAN COORDINATES (ANGSTROEM)
---------------------------------
  C     -4.127240    1.598090    0.000000
  C     -5.236140    0.753090    0.000000
  C     -5.058790   -0.629750    0.000000
  C     -3.772550   -1.167590    0.000000
  C     -2.663650   -0.322590    0.000000
  C     -2.840990    1.060250    0.000000
  H     -4.265550    2.676550    0.000000
  H     -1.976170    1.719260    0.000000
  H     -1.660520   -0.742040    0.000000
  H     -3.634240   -2.246050    0.000000
  H     -5.923620   -1.288760    0.000000
  H     -6.239270    1.172540    0.000000

 Total Charge           Charge          ....    0
 Multiplicity           Mult            ....    1
 Number of Electrons    NEL             ....   42
 Basis Dimension        Dim             ....  114

ORBITAL ENERGIES
----------------

  NO   OCC          E(Eh)            E(eV)
   0   2.0000     -10.186306      -277.1835
   1   2.0000     -10.186154      -277.1793
   2   2.0000     -10.186134      -277.1788
   3   2.0000     -10.185741      -277.1681
   4   2.0000     -10.185722      -277.1676
   5   2.0000     -10.185609      -277.1645
   6   2.0000      -0.844020       -22.9670
   7   2.0000      -0.735203       -20.0059
   8   2.0000      -0.735192       -20.0056
   9   2.0000      -0.594568       -16.1790
  10   2.0000      -0.594557       -16.1787
  11   2.0000      -0.520109       -14.1529
  12   2.0000      -0.453861       -12.3502
  13   2.0000      -0.446077       -12.1384
  14   2.0000      -0.419547       -11.4165
  15   2.0000      -0.419544       -11.4164
  16   2.0000      -0.366314        -9.9679
  17   2.0000      -0.343191        -9.3387
  18   2.0000      -0.343188        -9.3386
  19   2.0000      -0.253093        -6.8870
  20   2.0000      -0.253089        -6.8869
  21   0.0000      -0.004688        -0.1276
  22   0.0000      -0.004686        -0.1275
  23   0.0000       0.061483         1.6730
  24   0.0000       0.102541         2.7903
  25   0.0000       0.102543         2.7903

MULLIKEN ATOMIC CHARGES
-----------------------
   0 C :    0.020550
   1 C :    0.020709
   2 C :    0.020377
   3 C :    0.020554
   4 C :    0.020709
   5 C :    0.020381
   6 H :   -0.020447
   7 H :   -0.020468
   8 H :   -0.020726
   9 H :   -0.020447
  10 H :   -0.020465
  11 H :   -0.020726
Sum of atomic charges:    0.0000000

LOEWDIN ATOMIC CHARGES
----------------------
   0 C :   -0.025016
   1 C :   -0.024950
   2 C :   -0.024974
   3 C :   -0.025018
   4 C :   -0.024949
   5 C :   -0.024974
   6 H :    0.025000
   7 H :    0.024988
   8 H :    0.024951
   9 H :    0.025001
  10 H :    0.024990
  11 H :    0.024951

  Mayer bond orders larger than 0.100000
B(  0-C ,  1-C ) :   1.3920 B(  0-C ,  5-C ) :   1.3919 B(  0-C ,  6-H ) :   0.9859
B(  1-C ,  2-C ) :   1.3918 B(  1-C , 11-H ) :   0.9861 B(  2-C ,  3-C ) :   1.3919
B(  2-C , 10-H ) :   0.9860 B(  3-C ,  4-C ) :   1.3920 B(  3-C ,  9-H ) :   0.9859
B(  4-C ,  5-C ) :   1.3918 B(  4-C ,  8-H ) :   0.9861 B(  5-C ,  7-H ) :   0.9860

Dispersion correction           -0.018914963
FINAL SINGLE POINT ENERGY      -231.949339643178

DIPOLE MOMENT
-------------
                                X             Y             Z
Electronic contribution:      0.00001       0.00000      -0.00000
Nuclear contribution   :     -0.00001      -0.00000       0.00000
                        -----------------------------------------
Total Dipole Moment    :      0.00000       0.00000      -0.00000
                        -----------------------------------------
Magnitude (a.u.)       :      0.00000
Magnitude (Debye)      :      0.00000

Rotational constants in cm-1:     0.190144     0.190142     0.095071
Rotational constants in MHz :  5700.361471  5700.315818  2850.169322

                             ****ORCA TERMINATED NORMALLY****
TOTAL RUN TIME: 0 days 0 hours 0 minutes 32 seconds 815 msec
