                         Program Version 5.0.4 -  RELEASE  -
|  1> !B3PW91 cc-pVTZ
|  2>
|  3> * xyz 0 1
|  4>   C   -1.05354596271083      1.42135243576665     -0.73549220185663
|  5>   C   -1.76717691585433      0.81968690597605      0.22444324622836
|  6>   C   -0.91604797271676     -0.21504620254596      0.92339098529051
|  7>   C   -3.18658916550982      1.06760146729181      0.62043996179919
|  8>   H   -3.65177058285626      1.84890976029203      0.00161745831760
|  9>   H   -3.25259686050292      1.37975261146372      1.67787971117939
| 10>   H   -3.79133874736600      0.14808169577577      0.52701048897989
| 11>   C   0.35705795446457      0.89749440001034     -0.79501799653405
| 12>   C   1.41588701773226      2.02006837281249     -0.63884945754235
| 13>   C   2.80881703463114      1.41251132710473     -0.63583732910559
| 14>   H   1.20967085252781      2.57392305919014      0.29049098629325
| 15>   H   1.34740263144453      2.70902449090648     -1.49554455642121
| 16>   C   3.37622781232091      1.19049215945855      0.75754145591531
| 17>   N   0.41123761481178     -0.07210345422347      0.31381604773552
| 18>   H   0.56307393880421      0.40954505459904     -1.76931562713006
| 19>   H   -1.34153580290440     -1.23063666814028      0.78694765203342
| 20>   H   -0.89469173408622     -0.03961126720342      2.01833030977159
| 21>   H   0.80199521648994     -0.96262165511348      0.02364954504097
| 22>   O   3.36130687691708      1.06897825383177     -1.65256833709520
| 23>   Cl  4.92950915132907      0.31373216343513      0.77168111918747
| 24>   H   2.62051255229742      0.61607693324621      1.31840686987001
| 25>   H   3.50773757250952      2.16097047317234      1.26235402519175
| 26>   H   -1.41589248177270      2.21265768289335     -1.39571435714913
| 27> **                         ****END OF INPUT****

CARTESIAN COORDINATES (ANGSTROEM)
---------------------------------
  C     -1.053546    1.421352   -0.735492
  C     -1.767177    0.819687    0.224443
  C     -0.916048   -0.215046    0.923391
  C     -3.186589    1.067601    0.620440
  H     -3.651771    1.848910    0.001617
  H     -3.252597    1.379753    1.677880
  H     -3.791339    0.148082    0.527010
  C      0.357058    0.897494   -0.795018
  C      1.415887    2.020068   -0.638849
  C      2.808817    1.412511   -0.635837
  H      1.209671    2.573923    0.290491
  H      1.347403    2.709024   -1.495545
  C      3.376228    1.190492    0.757541
  N      0.411238   -0.072103    0.313816
  H      0.563074    0.409545   -1.769316
  H     -1.341536   -1.230637    0.786948
  H     -0.894692   -0.039611    2.018330
  H      0.801995   -0.962622    0.023650
  O      3.361307    1.068978   -1.652568
  Cl     4.929509    0.313732    0.771681
  H      2.620513    0.616077    1.318407
  H      3.507738    2.160970    1.262354
  H     -1.415892    2.212658   -1.395714

 Total Charge           Charge          ....    0
 Multiplicity           Mult            ....    1
 Number of Electrons    NEL             ....   92
 Basis Dimension        Dim             ....  502

ORBITAL ENERGIES
----------------

  NO   OCC          E(Eh)            E(eV)
   0   2.0000    -101.524335     -2762.6176
   1   2.0000     -19.115546      -520.1604
   2   2.0000     -14.311022      -389.4227
   3   2.0000     -10.260897      -279.2132
   4   2.0000     -10.227030      -278.2916
   5   2.0000     -10.217377      -278.0290
   6   2.0000     -10.204042      -277.6661
   7   2.0000     -10.187113      -277.2054
   8   2.0000     -10.179480      -276.9977
   9   2.0000     -10.176959      -276.9291
  10   2.0000     -10.171160      -276.7713
  11   2.0000      -9.452071      -257.2039
  12   2.0000      -7.211782      -196.2426
  13   2.0000      -7.202659      -195.9943
  14   2.0000      -7.202583      -195.9922
  15   2.0000      -1.056987       -28.7621
  16   2.0000      -0.942500       -25.6467
  17   2.0000      -0.856076       -23.2950
  18   2.0000      -0.806922       -21.9575
  19   2.0000      -0.793565       -21.5940
  20   2.0000      -0.734160       -19.9775
  21   2.0000      -0.701894       -19.0995
  22   2.0000      -0.680372       -18.5139
  23   2.0000      -0.597825       -16.2676
  24   2.0000      -0.555873       -15.1261
  25   2.0000      -0.537020       -14.6131
  26   2.0000      -0.525670       -14.3042
  27   2.0000      -0.491141       -13.3646
  28   2.0000      -0.478983       -13.0338
  29   2.0000      -0.462323       -12.5805
  30   2.0000      -0.458511       -12.4767
  31   2.0000      -0.438707       -11.9378
  32   2.0000      -0.434622       -11.8267
  33   2.0000      -0.420507       -11.4426
  34   2.0000      -0.408126       -11.1057
  35   2.0000      -0.403956       -10.9922
  36   2.0000      -0.402488       -10.9522
  37   2.0000      -0.378481       -10.2990
  38   2.0000      -0.372989       -10.1495
  39   2.0000      -0.363663        -9.8958
  40   2.0000      -0.353475        -9.6185
  41   2.0000      -0.301188        -8.1957
  42   2.0000      -0.298281        -8.1166
  43   2.0000      -0.271252        -7.3812
  44   2.0000      -0.258678        -7.0390
  45   2.0000      -0.235081        -6.3969
  46   0.0000      -0.030404        -0.8273
  47   0.0000       0.000647         0.0176
  48   0.0000       0.027064         0.7365
  49   0.0000       0.034004         0.9253
  50   0.0000       0.047392         1.2896

MULLIKEN ATOMIC CHARGES
-----------------------
   0 C :   -0.212552
   1 C :    0.022609
   2 C :   -0.041720
   3 C :   -0.256078
   4 H :    0.097355
   5 H :    0.095994
   6 H :    0.094712
   7 C :    0.042682
   8 C :   -0.166060
   9 C :    0.190816
  10 H :    0.094003
  11 H :    0.106586
  12 C :   -0.115847
  13 N :   -0.267681
  14 H :    0.101116
  15 H :    0.073858
  16 H :    0.067113
  17 H :    0.129030
  18 O :   -0.259155
  19 Cl:   -0.153045
  20 H :    0.121740
  21 H :    0.121394
  22 H :    0.113128
Sum of atomic charges:    0.0000000

LOEWDIN ATOMIC CHARGES
----------------------
   0 C :    0.034274
   1 C :   -0.060906
   2 C :   -0.014733
   3 C :    0.096156
   4 H :   -0.011488
   5 H :   -0.011027
   6 H :   -0.011434
   7 C :   -0.094120
   8 C :    0.045119
   9 C :   -0.319967
  10 H :   -0.014433
  11 H :   -0.007076
  12 C :   -0.161198
  13 N :    0.347157
  14 H :   -0.016685
  15 H :   -0.024182
  16 H :   -0.023840
  17 H :   -0.107448
  18 O :    0.218333
  19 Cl:    0.223244
  20 H :   -0.031372
  21 H :   -0.022627
  22 H :   -0.031748

  Mayer bond orders larger than 0.100000
B(  0-C ,  1-C ) :   1.7987 B(  0-C ,  7-C ) :   0.9907 B(  0-C , 22-H ) :   0.9586
B(  1-C ,  2-C ) :   0.9767 B(  1-C ,  3-C ) :   0.9835 B(  2-C , 13-N ) :   1.0205
B(  2-C , 15-H ) :   0.9570 B(  2-C , 16-H ) :   0.9501 B(  3-C ,  4-H ) :   0.9766
B(  3-C ,  5-H ) :   0.9590 B(  3-C ,  6-H ) :   0.9586 B(  7-C ,  8-C ) :   0.9030
B(  7-C , 13-N ) :   0.9765 B(  7-C , 14-H ) :   0.9644 B(  8-C ,  9-C ) :   0.9315
B(  8-C , 10-H ) :   0.9592 B(  8-C , 11-H ) :   0.9571 B(  9-C , 12-C ) :   0.9021
B(  9-C , 18-O ) :   2.1887 B( 12-C , 19-Cl) :   1.0305 B( 12-C , 20-H ) :   0.9243
B( 12-C , 21-H ) :   0.9475 B( 13-N , 17-H ) :   0.9832

FINAL SINGLE POINT ENERGY      -902.195562489456

DIPOLE MOMENT
-------------
                                X             Y             Z
Electronic contribution:     22.55251      -2.24457      -1.09166
Nuclear contribution   :    -24.46675       2.52936       1.68763
                        -----------------------------------------
Total Dipole Moment    :     -1.91424       0.28479       0.59596
                        -----------------------------------------
Magnitude (a.u.)       :      2.02499
Magnitude (Debye)      :      5.14712

Rotational constants in cm-1:     0.078975     0.013377     0.012208
Rotational constants in MHz :  2367.608052   401.025928   365.983271

                             ****ORCA TERMINATED NORMALLY****
TOTAL RUN TIME: 0 days 0 hours 8 minutes 19 seconds 762 msec
