                         Program Version 4.2.1 -  RELEASE  -
|  1> !B3LYP DEF2-SVP FREQ
|  2>
|  3> * xyz 1 1
|  4>   C   -6.16196786031982      0.63456608817732      1.80070023325944
|  5>   C   -6.68663240979867      0.95323835159622      0.52241945150008
|  6>   C   -6.43720693649871      0.13433192426003     -0.56857118959928
|  7>   C   -5.65273248392365     -1.02838495250979     -0.41242745904751
|  8>   C   -5.12145358034595     -1.36104899655133      0.85020689849794
|  9>   C   -5.37211140807765     -0.54315939541428      1.93905485374930
| 10>   C   -6.41875943958409      1.50394195272794      2.98496331682346
| 11>   H   -5.46854083243818      1.91188530568113      3.37779338428848
| 12>   H   -6.85508833985482      0.91748342841729      3.81366562772367
| 13>   H   -7.08767204005009      2.34360498303608      2.75346819334671
| 14>   H   -7.29248887323711      1.85490186109546      0.40645095628016
| 15>   H   -6.84669516712151      0.38458861291414     -1.54966993355801
| 16>   H   -5.45720456424413     -1.67233900292957     -1.27341556636919
| 17>   H   -4.51624111614581     -2.26280300524188      0.96580553706305
| 18>   H   -4.96551131607386     -0.79633868957753      2.92139255657198
| 19>   N   -8.62528405824465     -0.88389905300117    -13.51212481752855
| 20>   O   -8.33027882321737     -0.94643480462231    -12.39466074174088
| 21>   O   -8.70463075082231     -0.30098460805779    -14.50810130126064
| 22> **                         ****END OF INPUT****

CARTESIAN COORDINATES (ANGSTROEM)
---------------------------------
  C     -6.161968    0.634566    1.800700
  C     -6.686632    0.953238    0.522419
  C     -6.437207    0.134332   -0.568571
  C     -5.652732   -1.028385   -0.412427
  C     -5.121454   -1.361049    0.850207
  C     -5.372111   -0.543159    1.939055
  C     -6.418759    1.503942    2.984963
  H     -5.468541    1.911885    3.377793
  H     -6.855088    0.917483    3.813666
  H     -7.087672    2.343605    2.753468
  H     -7.292489    1.854902    0.406451
  H     -6.846695    0.384589   -1.549670
  H     -5.457205   -1.672339   -1.273416
  H     -4.516241   -2.262803    0.965806
  H     -4.965511   -0.796339    2.921393
  N     -8.625284   -0.883899  -13.512125
  O     -8.330279   -0.946435  -12.394661
  O     -8.704631   -0.300985  -14.508101

 Total Charge           Charge          ....    1
 Multiplicity           Mult            ....    1
 Number of Electrons    NEL             ....   72
 Basis Dimension        Dim             ....  180

ORBITAL ENERGIES
----------------

  NO   OCC          E(Eh)            E(eV)
   0   2.0000     -19.669072      -535.2227
   1   2.0000     -19.668893      -535.2178
   2   2.0000     -15.001257      -408.2050
   3   2.0000     -10.228790      -278.3395
   4   2.0000     -10.222513      -278.1687
   5   2.0000     -10.221638      -278.1449
   6   2.0000     -10.221315      -278.1361
   7   2.0000     -10.219263      -278.0803
   8   2.0000     -10.218226      -278.0521
   9   2.0000     -10.216550      -278.0065
  10   2.0000      -1.686234       -45.8848
  11   2.0000      -1.565316       -42.5944
  12   2.0000      -1.009980       -27.4830
  13   2.0000      -0.967438       -26.3253
  14   2.0000      -0.964599       -26.2481
  15   2.0000      -0.937538       -25.5117
  16   2.0000      -0.876340       -23.8464
  17   2.0000      -0.793315       -21.5872
  18   2.0000      -0.769735       -20.9455
  19   2.0000      -0.759268       -20.6607
  20   2.0000      -0.754733       -20.5373
  21   2.0000      -0.705839       -19.2068
  22   2.0000      -0.628265       -17.0960
  23   2.0000      -0.609704       -16.5909
  24   2.0000      -0.539146       -14.6709
  25   2.0000      -0.492216       -13.3939
  26   2.0000      -0.483482       -13.1562
  27   2.0000      -0.454478       -12.3670
  28   2.0000      -0.448486       -12.2039
  29   2.0000      -0.437411       -11.9026
  30   2.0000      -0.416742       -11.3401
  31   2.0000      -0.385210       -10.4821
  32   2.0000      -0.378678       -10.3044
  33   2.0000      -0.370041       -10.0693
  34   2.0000      -0.288847        -7.8599
  35   2.0000      -0.271266        -7.3815
  36   0.0000      -0.504544       -13.7293
  37   0.0000      -0.442217       -12.0333
  38   0.0000      -0.191735        -5.2174
  39   0.0000      -0.043660        -1.1880
  40   0.0000      -0.036693        -0.9985

MULLIKEN ATOMIC CHARGES
-----------------------
   0 C :   -0.055869
   1 C :   -0.007358
   2 C :    0.029656
   3 C :    0.005462
   4 C :    0.024045
   5 C :   -0.002425
   6 C :    0.078060
   7 H :    0.027213
   8 H :    0.026674
   9 H :    0.008310
  10 H :   -0.032205
  11 H :   -0.031775
  12 H :   -0.024066
  13 H :   -0.016096
  14 H :   -0.029628
  15 N :    0.586699
  16 O :    0.206445
  17 O :    0.206856
Sum of atomic charges:    1.0000000

LOEWDIN ATOMIC CHARGES
----------------------
   0 C :   -0.018980
   1 C :   -0.035137
   2 C :   -0.028463
   3 C :   -0.036211
   4 C :   -0.024461
   5 C :   -0.026994
   6 C :   -0.047202
   7 H :    0.037325
   8 H :    0.036287
   9 H :    0.027138
  10 H :    0.022368
  11 H :    0.021564
  12 H :    0.021282
  13 H :    0.027080
  14 H :    0.024404
  15 N :    0.484767
  16 O :    0.257343
  17 O :    0.257890

  Mayer bond orders larger than 0.100000
B(  0-C ,  1-C ) :   1.3974 B(  0-C ,  5-C ) :   1.3763 B(  0-C ,  6-C ) :   1.0728
B(  1-C ,  2-C ) :   1.3809 B(  1-C , 10-H ) :   0.9813 B(  2-C ,  3-C ) :   1.3909
B(  2-C , 11-H ) :   0.9798 B(  3-C ,  4-C ) :   1.3739 B(  3-C , 12-H ) :   0.9812
B(  4-C ,  5-C ) :   1.4029 B(  4-C , 13-H ) :   0.9827 B(  5-C , 14-H ) :   0.9861
B(  6-C ,  7-H ) :   0.9502 B(  6-C ,  8-H ) :   0.9527 B(  6-C ,  9-H ) :   0.9597
B( 15-N , 16-O ) :   1.9963 B( 15-N , 17-O ) :   1.9972 B( 16-O , 17-O ) :   0.5307

FINAL SINGLE POINT ENERGY      -475.641286671037

DIPOLE MOMENT
-------------
                                X             Y             Z
Electronic contribution:     -9.06905      -4.94164     -56.84766
Nuclear contribution   :      5.78511       3.91714      38.76830
                        -----------------------------------------
Total Dipole Moment    :     -3.28394      -1.02450     -18.07937
                        -----------------------------------------
Magnitude (a.u.)       :     18.40373
Magnitude (Debye)      :     46.77857

VIBRATIONAL FREQUENCIES
-----------------------

Scaling factor for frequencies =  1.000000000  (already applied!)

   0:         0.00 cm**-1
   1:         0.00 cm**-1
   2:         0.00 cm**-1
   3:         0.00 cm**-1
   4:         0.00 cm**-1
   5:         0.00 cm**-1
   6:        -1.51 cm**-1 ***imaginary mode***
   7:        23.06 cm**-1
   8:        57.68 cm**-1
   9:       103.13 cm**-1
  10:       187.68 cm**-1
  11:       202.00 cm**-1
  12:       208.72 cm**-1
  13:       342.09 cm**-1
  14:       412.33 cm**-1
  15:       492.02 cm**-1
  16:       533.92 cm**-1
  17:       628.36 cm**-1
  18:       714.55 cm**-1
  19:       716.81 cm**-1
  20:       743.22 cm**-1
  21:       749.76 cm**-1
  22:       800.92 cm**-1
  23:       856.07 cm**-1
  24:       913.56 cm**-1
  25:       988.49 cm**-1
  26:       993.00 cm**-1
  27:      1005.01 cm**-1
  28:      1013.78 cm**-1
  29:      1025.43 cm**-1
  30:      1056.14 cm**-1
  31:      1110.31 cm**-1
  32:      1158.75 cm**-1
  33:      1184.28 cm**-1
  34:      1256.77 cm**-1
  35:      1308.30 cm**-1
  36:      1343.00 cm**-1
  37:      1351.79 cm**-1
  38:      1405.66 cm**-1
  39:      1451.86 cm**-1
  40:      1459.97 cm**-1
  41:      1501.18 cm**-1
  42:      1509.91 cm**-1
  43:      1591.02 cm**-1
  44:      1674.68 cm**-1
  45:      2067.35 cm**-1
  46:      3007.34 cm**-1
  47:      3061.01 cm**-1
  48:      3137.25 cm**-1
  49:      3173.35 cm**-1
  50:      3178.24 cm**-1
  51:      3185.28 cm**-1
  52:      3196.44 cm**-1
  53:      3203.55 cm**-1

IR SPECTRUM
-----------

 Mode    freq (cm**-1)   T**2         TX         TY         TZ
-------------------------------------------------------------------
   7:        23.06    0.826866  (  0.403023  -0.814533   0.031238)
   8:        57.68    0.584537  ( -0.687667  -0.302919   0.141035)
   9:       103.13    0.672624  (  0.599723   0.517656  -0.212104)
  10:       187.68    0.094937  ( -0.300716   0.059286   0.031493)
  11:       202.00    1.573389  (  1.055965   0.638293  -0.225630)
  12:       208.72    0.084778  (  0.109512   0.229531   0.141778)
  13:       342.09    0.349046  (  0.276330  -0.248789   0.459120)
  14:       412.33    0.000486  (  0.002709   0.000100  -0.021879)
  15:       492.02    7.682967  (  2.304882   1.437644  -0.551058)
  16:       533.92    0.468615  (  0.117445  -0.486767  -0.466777)
  17:       628.36    0.133234  (  0.189397  -0.200609   0.238996)
  18:       714.55   11.122788  ( -3.148500   0.642661   0.892593)
  19:       716.81   28.353015  ( -4.281721  -2.989464   1.040665)
  20:       743.22    7.062864  (  0.970126   2.406316   0.575642)
  21:       749.76   20.484367  ( -3.754847  -2.321000   0.999224)
  22:       800.92    0.416933  ( -0.011397   0.416138   0.493591)
  23:       856.07    0.029992  ( -0.133274  -0.107391   0.026400)
  24:       913.56    0.221124  ( -0.396580  -0.083797   0.238383)
  25:       988.49    2.125144  ( -0.163479   0.821702   1.192990)
  26:       993.00    0.022932  ( -0.123342   0.078139   0.040164)
  27:      1005.01    0.460513  ( -0.196913   0.436921   0.480457)
  28:      1013.78    0.023512  (  0.142409   0.056824  -0.001572)
  29:      1025.43    2.970099  ( -0.224985   0.933511   1.431097)
  30:      1056.14    4.625946  ( -1.685725  -1.334806   0.050680)
  31:      1110.31    5.310577  ( -1.123604   1.062165  -1.708770)
  32:      1158.75    0.570593  (  0.426339  -0.439558   0.442286)
  33:      1184.28    0.323076  ( -0.009786   0.238240   0.515967)
  34:      1256.77    0.846143  (  0.139250   0.266113   0.869446)
  35:      1308.30    1.620394  (  0.581630  -1.074263  -0.357853)
  36:      1343.00    0.259453  ( -0.254636   0.304413  -0.319290)
  37:      1351.79    0.538684  (  0.267718   0.671601   0.126344)
  38:      1405.66    0.586407  (  0.370702  -0.163100   0.649912)
  39:      1451.86    6.670097  ( -2.042754  -1.450342   0.627504)
  40:      1459.97    3.882827  (  1.039053  -0.854840   1.439599)
  41:      1501.18    7.130886  (  1.149653  -0.931463   2.222962)
  42:      1509.91   17.244160  (  1.124249  -2.861112  -2.791820)
  43:      1591.02    0.565430  (  0.361277  -0.326027   0.573250)
  44:      1674.68    8.428702  (  0.519285  -1.734512  -2.269474)
  45:      2067.35  280.889414  ( -2.797455   4.754650 -15.825832)
  46:      3007.34   22.801931  (  0.016016  -2.545295  -4.040192)
  47:      3061.01   13.088120  ( -2.966385  -1.627305   1.280842)
  48:      3137.25   12.019981  (  1.996562  -2.749246   0.689469)
  49:      3173.35    2.419338  ( -0.007483   0.522374   1.465062)
  50:      3178.24    1.311024  (  0.587599  -0.612576   0.768442)
  51:      3185.28   18.742204  ( -0.828345   2.558061   3.392989)
  52:      3196.44   32.804768  ( -3.050996   3.397784  -3.457059)
  53:      3203.55    8.896216  ( -0.560809   1.773879   2.331322)

--------------------------
THERMOCHEMISTRY AT 298.15K
--------------------------

Temperature         ... 298.15 K
Pressure            ... 1.00 atm
Total Mass          ... 138.15 AMU

Throughout the following assumptions are being made:
  (1) The electronic state is orbitally nondegenerate
  (2) There are no thermally accessible electronically excited states
  (3) Hindered rotations indicated by low frequency modes are not
      treated as such but are treated as vibrations and this may
      cause some error
  (4) All equations used are the standard statistical mechanics
      equations for an ideal gas
  (5) All vibrations are strictly harmonic

freq.      23.06  E(vib)   ...       0.56
freq.      57.68  E(vib)   ...       0.51
freq.     103.13  E(vib)   ...       0.46
freq.     187.68  E(vib)   ...       0.36
freq.     202.00  E(vib)   ...       0.35
freq.     208.72  E(vib)   ...       0.34
freq.     342.09  E(vib)   ...       0.23
freq.     412.33  E(vib)   ...       0.19
freq.     492.02  E(vib)   ...       0.14
freq.     533.92  E(vib)   ...       0.13
freq.     628.36  E(vib)   ...       0.09
freq.     714.55  E(vib)   ...       0.07
freq.     716.81  E(vib)   ...       0.07
freq.     743.22  E(vib)   ...       0.06
freq.     749.76  E(vib)   ...       0.06
freq.     800.92  E(vib)   ...       0.05
freq.     856.07  E(vib)   ...       0.04
freq.     913.56  E(vib)   ...       0.03
freq.     988.49  E(vib)   ...       0.02
freq.     993.00  E(vib)   ...       0.02
freq.    1005.01  E(vib)   ...       0.02
freq.    1013.78  E(vib)   ...       0.02
freq.    1025.43  E(vib)   ...       0.02
freq.    1056.14  E(vib)   ...       0.02
freq.    1110.31  E(vib)   ...       0.02
freq.    1158.75  E(vib)   ...       0.01
freq.    1184.28  E(vib)   ...       0.01
freq.    1256.77  E(vib)   ...       0.01
freq.    1308.30  E(vib)   ...       0.01
freq.    1343.00  E(vib)   ...       0.01
freq.    1351.79  E(vib)   ...       0.01
freq.    1405.66  E(vib)   ...       0.00
freq.    1451.86  E(vib)   ...       0.00
freq.    1459.97  E(vib)   ...       0.00
freq.    1501.18  E(vib)   ...       0.00
freq.    1509.91  E(vib)   ...       0.00
freq.    1591.02  E(vib)   ...       0.00
freq.    1674.68  E(vib)   ...       0.00
freq.    2067.35  E(vib)   ...       0.00
freq.    3007.34  E(vib)   ...       0.00
freq.    3061.01  E(vib)   ...       0.00
freq.    3137.25  E(vib)   ...       0.00
freq.    3173.35  E(vib)   ...       0.00
freq.    3178.24  E(vib)   ...       0.00
freq.    3185.28  E(vib)   ...       0.00
freq.    3196.44  E(vib)   ...       0.00
freq.    3203.55  E(vib)   ...       0.00

------------
INNER ENERGY
------------

The inner energy is: U= E(el) + E(ZPE) + E(vib) + E(rot) + E(trans)
    E(el)   - is the total energy from the electronic structure calculation
              = E(kin-el) + E(nuc-el) + E(el-el) + E(nuc-nuc)
    E(ZPE)  - the the zero temperature vibrational energy from the frequency calculation
    E(vib)  - the the finite temperature correction to E(ZPE) due to population
              of excited vibrational states
    E(rot)  - is the rotational thermal energy
    E(trans)- is the translational thermal energy

Summary of contributions to the inner energy U:
Electronic energy                ...   -475.64128667 Eh
Zero point energy                ...      0.13961756 Eh      87.61 kcal/mol
Thermal vibrational correction   ...      0.00631475 Eh       3.96 kcal/mol
Thermal rotational correction    ...      0.00141627 Eh       0.89 kcal/mol
Thermal translational correction ...      0.00141627 Eh       0.89 kcal/mol
-----------------------------------------------------------------------
Total thermal energy                   -475.49252181 Eh

Summary of corrections to the electronic energy:
(perhaps to be used in another calculation)
Total thermal correction                  0.00914729 Eh       5.74 kcal/mol
Non-thermal (ZPE) correction              0.13961756 Eh      87.61 kcal/mol
-----------------------------------------------------------------------
Total correction                          0.14876486 Eh      93.35 kcal/mol

--------
ENTHALPY
--------

The enthalpy is H = U + kB*T
                kB is Boltzmann's constant
Total free energy                 ...   -475.49252181 Eh
Thermal Enthalpy correction       ...      0.00094421 Eh       0.59 kcal/mol
-----------------------------------------------------------------------
Total Enthalpy                    ...   -475.49157761 Eh

Note: Only C1 symmetry has been detected, increase convergence thresholds
      if your molecule has a higher symmetry. Symmetry factor of 1.0 is
      used for the rotational entropy correction.

Note: Rotational entropy computed according to Herzberg
Infrared and Raman Spectra, Chapter V,1, Van Nostrand Reinhold, 1945
Point Group:  C1, Symmetry Number:   1
Rotational constants in cm-1:     0.119580     0.002448     0.002401

Vibrational entropy computed according to the QRRHO of S. Grimme
Chem.Eur.J. 2012 18 9955

-------
ENTROPY
-------

The entropy contributions are T*S = T*(S(el)+S(vib)+S(rot)+S(trans))
     S(el)   - electronic entropy
     S(vib)  - vibrational entropy
     S(rot)  - rotational entropy
     S(trans)- translational entropy
The entropies will be listed as mutliplied by the temperature to get
units of energy

Electronic entropy                ...      0.00000000 Eh      0.00 kcal/mol
Vibrational entropy               ...      0.01123274 Eh      7.05 kcal/mol
Rotational entropy                ...      0.01619948 Eh     10.17 kcal/mol
Translational entropy             ...      0.01932890 Eh     12.13 kcal/mol
-----------------------------------------------------------------------
Final entropy term                ...      0.04676112 Eh     29.34 kcal/mol

In case the symmetry of your molecule has not been determined correctly
or in case you have a reason to use a different symmetry number we print
out the resulting rotational entropy values for sn=1,12 :
 --------------------------------------------------------
|  sn= 1 | S(rot)=       0.01619948 Eh     10.17 kcal/mol|
|  sn= 2 | S(rot)=       0.01554502 Eh      9.75 kcal/mol|
|  sn= 3 | S(rot)=       0.01516219 Eh      9.51 kcal/mol|
|  sn= 4 | S(rot)=       0.01489057 Eh      9.34 kcal/mol|
|  sn= 5 | S(rot)=       0.01467988 Eh      9.21 kcal/mol|
|  sn= 6 | S(rot)=       0.01450773 Eh      9.10 kcal/mol|
|  sn= 7 | S(rot)=       0.01436219 Eh      9.01 kcal/mol|
|  sn= 8 | S(rot)=       0.01423611 Eh      8.93 kcal/mol|
|  sn= 9 | S(rot)=       0.01412490 Eh      8.86 kcal/mol|
|  sn=10 | S(rot)=       0.01402542 Eh      8.80 kcal/mol|
|  sn=11 | S(rot)=       0.01393543 Eh      8.74 kcal/mol|
|  sn=12 | S(rot)=       0.01385328 Eh      8.69 kcal/mol|
 --------------------------------------------------------

-------------------

                             ****ORCA TERMINATED NORMALLY****
TOTAL RUN TIME: 0 days 0 hours 58 minutes 48 seconds 630 msec
