                         Program Version 5.0.4 -  RELEASE  -
|  1> !B3LYP/G DEF2-TZVP COPT FREQ D4 SOSCF
|  2>
|  3> * xyz 1 1
|  4>   C   -6.16196786031982      0.63456608817732      1.80070023325944
|  5>   C   -6.68663240979867      0.95323835159622      0.52241945150008
|  6>   C   -6.43720693649871      0.13433192426003     -0.56857118959928
|  7>   C   -5.65273248392365     -1.02838495250979     -0.41242745904751
|  8>   C   -5.12145358034595     -1.36104899655133      0.85020689849794
|  9>   C   -5.37211140807765     -0.54315939541428      1.93905485374930
| 10>   C   -6.41875943958409      1.50394195272794      2.98496331682346
| 11>   H   -5.46854083243818      1.91188530568113      3.37779338428848
| 12>   H   -6.85508833985482      0.91748342841729      3.81366562772367
| 13>   H   -7.08767204005009      2.34360498303608      2.75346819334671
| 14>   H   -7.29248887323711      1.85490186109546      0.40645095628016
| 15>   H   -6.84669516712151      0.38458861291414     -1.54966993355801
| 16>   H   -5.45720456424413     -1.67233900292957     -1.27341556636919
| 17>   H   -4.51624111614581     -2.26280300524188      0.96580553706305
| 18>   H   -4.96551131607386     -0.79633868957753      2.92139255657198
| 19>   N   -8.62528405824465     -0.88389905300117    -13.51212481752855
| 20>   O   -8.33027882321737     -0.94643480462231    -12.39466074174088
| 21>   O   -8.70463075082231     -0.30098460805779    -14.50810130126064
| 22> **                         ****END OF INPUT****
 Total Charge           Charge          ....    1
 Multiplicity           Mult            ....    1
 Number of Electrons    NEL             ....   72
Dispersion correction           -0.021402403
FINAL SINGLE POINT ENERGY      -476.469646337033
Dispersion correction            ... Starting D4
Dispersion correction           -0.021428860
FINAL SINGLE POINT ENERGY      -476.485442328591
Dispersion correction            ... Starting D4
Dispersion correction           -0.021458549
FINAL SINGLE POINT ENERGY      -476.517566256090
Dispersion correction            ... Starting D4
FINAL SINGLE POINT ENERGY      -476.521908847589
FINAL SINGLE POINT ENERGY      -476.522824513084
FINAL SINGLE POINT ENERGY      -476.524557500483
FINAL SINGLE POINT ENERGY      -476.526045651043
FINAL SINGLE POINT ENERGY      -476.527363141719
FINAL SINGLE POINT ENERGY      -476.527704267102
FINAL SINGLE POINT ENERGY      -476.527718984915
FINAL SINGLE POINT ENERGY      -476.527728697246
FINAL SINGLE POINT ENERGY      -476.527738311326
FINAL SINGLE POINT ENERGY      -476.527745318052
FINAL SINGLE POINT ENERGY      -476.527750138625
FINAL SINGLE POINT ENERGY      -476.527753438230
FINAL SINGLE POINT ENERGY      -476.527756465858
Dispersion correction           -0.021511318
FINAL SINGLE POINT ENERGY      -476.527758780461
Dispersion correction            ... Starting D4
Dispersion correction           -0.021510261
FINAL SINGLE POINT ENERGY      -476.527759739094
Dispersion correction            ... Starting D4
                    ***********************HURRAY********************

CARTESIAN COORDINATES (ANGSTROEM)
---------------------------------
  C     -6.160808    0.630025    1.797029
  C     -6.682621    0.948176    0.527040
  C     -6.433734    0.135691   -0.557626
  C     -5.654009   -1.020926   -0.403015
  C     -5.126292   -1.353155    0.852055
  C     -5.376130   -0.541402    1.934457
  C     -6.416411    1.497769    2.977421
  H     -5.474524    1.902945    3.364787
  H     -6.850807    0.916888    3.797462
  H     -7.079143    2.328164    2.743531
  H     -7.284057    1.840345    0.412102
  H     -6.838485    0.383869   -1.529255
  H     -5.460804   -1.658549   -1.255413
  H     -4.526289   -2.245760    0.964974
  H     -4.972475   -0.792330    2.907137
  N     -8.625584   -0.883235  -13.514490
  O     -8.332108   -0.947121  -12.400154
  O     -8.703984   -0.301896  -14.507388

 Multiplicity           Mult            ....    1
 Number of Electrons    NEL             ....   72
 Basis Dimension        Dim             ....  358

ORBITAL ENERGIES
----------------

  NO   OCC          E(Eh)            E(eV)
   0   2.0000     -19.470307      -529.8140
   1   2.0000     -19.470079      -529.8078
   2   2.0000     -14.789770      -402.4501
   3   2.0000     -10.323812      -280.9252
   4   2.0000     -10.310735      -280.5694
   5   2.0000     -10.298282      -280.2305
   6   2.0000     -10.297670      -280.2138
   7   2.0000     -10.295593      -280.1573
   8   2.0000     -10.295479      -280.1542
   9   2.0000     -10.276721      -279.6438
  10   2.0000      -1.519990       -41.3610
  11   2.0000      -1.395370       -37.9699
  12   2.0000      -0.984163       -26.7804
  13   2.0000      -0.896214       -24.3872
  14   2.0000      -0.871561       -23.7164
  15   2.0000      -0.860315       -23.4104
  16   2.0000      -0.803572       -21.8663
  17   2.0000      -0.798043       -21.7159
  18   2.0000      -0.794150       -21.6099
  19   2.0000      -0.781136       -21.2558
  20   2.0000      -0.727649       -19.8003
  21   2.0000      -0.706421       -19.2227
  22   2.0000      -0.633191       -17.2300
  23   2.0000      -0.596525       -16.2323
  24   2.0000      -0.591687       -16.1006
  25   2.0000      -0.586362       -15.9557
  26   2.0000      -0.573039       -15.5932
  27   2.0000      -0.544462       -14.8156
  28   2.0000      -0.534802       -14.5527
  29   2.0000      -0.529789       -14.4163
  30   2.0000      -0.499675       -13.5968
  31   2.0000      -0.476367       -12.9626
  32   2.0000      -0.467661       -12.7257
  33   2.0000      -0.459809       -12.5120
  34   2.0000      -0.379805       -10.3350
  35   2.0000      -0.356563        -9.7026
  36   0.0000      -0.349315        -9.5053
  37   0.0000      -0.269832        -7.3425
  38   0.0000      -0.135922        -3.6986
  39   0.0000      -0.127327        -3.4647
  40   0.0000      -0.065864        -1.7922

MULLIKEN ATOMIC CHARGES
-----------------------
   0 C :    0.189601
   1 C :   -0.156827
   2 C :   -0.079445
   3 C :   -0.063494
   4 C :   -0.084697
   5 C :   -0.146876
   6 C :   -0.346998
   7 H :    0.155240
   8 H :    0.153037
   9 H :    0.136107
  10 H :    0.140704
  11 H :    0.142739
  12 H :    0.151957
  13 H :    0.148041
  14 H :    0.147616
  15 N :    0.571410
  16 O :   -0.032055
  17 O :   -0.026059
Sum of atomic charges:    1.0000000

LOEWDIN ATOMIC CHARGES
----------------------
   0 C :   -0.095516
   1 C :   -0.079145
   2 C :   -0.099384
   3 C :   -0.055771
   4 C :   -0.104531
   5 C :   -0.066706
   6 C :   -0.226028
   7 H :    0.151236
   8 H :    0.149019
   9 H :    0.135048
  10 H :    0.155858
  11 H :    0.154180
  12 H :    0.154615
  13 H :    0.155882
  14 H :    0.157947
  15 N :    0.022743
  16 O :    0.242254
  17 O :    0.248299

  Mayer bond orders larger than 0.100000
B(  0-C ,  1-C ) :   1.2966 B(  0-C ,  5-C ) :   1.2350 B(  0-C ,  6-C ) :   0.9376
B(  0-C , 15-N ) :   0.1060 B(  1-C ,  2-C ) :   1.4870 B(  1-C , 10-H ) :   0.9530
B(  2-C ,  3-C ) :   1.3083 B(  2-C , 11-H ) :   0.9587 B(  3-C ,  4-C ) :   1.3215
B(  3-C , 12-H ) :   0.9531 B(  3-C , 15-N ) :   0.1144 B(  4-C ,  5-C ) :   1.4955
B(  4-C , 13-H ) :   0.9575 B(  5-C , 14-H ) :   0.9616 B(  6-C ,  7-H ) :   0.9370
B(  6-C ,  8-H ) :   0.9454 B(  6-C ,  9-H ) :   0.9868 B( 15-N , 16-O ) :   1.8219
B( 15-N , 17-O ) :   1.8279 B( 16-O , 17-O ) :   0.3416

Dispersion correction           -0.021509846
FINAL SINGLE POINT ENERGY      -476.527760216470

DIPOLE MOMENT
-------------
                                X             Y             Z
Electronic contribution:     -6.67663      -4.21524     -43.60336
Nuclear contribution   :      5.78832       3.91146      38.75800
                        -----------------------------------------
Total Dipole Moment    :     -0.88832      -0.30377      -4.84537
                        -----------------------------------------
Magnitude (a.u.)       :      4.93548
Magnitude (Debye)      :     12.54500

Dispersion correction in the Hessian             ... Starting D4

VIBRATIONAL FREQUENCIES
-----------------------

Scaling factor for frequencies =  1.000000000  (already applied!)

   0:         0.00 cm**-1
   1:         0.00 cm**-1
   2:         0.00 cm**-1
   3:         0.00 cm**-1
   4:         0.00 cm**-1
   5:         0.00 cm**-1
   6:       -20.62 cm**-1 ***imaginary mode***
   7:        -8.25 cm**-1 ***imaginary mode***
   8:        -3.76 cm**-1 ***imaginary mode***
   9:         2.72 cm**-1
  10:         5.03 cm**-1
  11:        13.59 cm**-1
  12:        33.85 cm**-1
  13:       186.02 cm**-1
  14:       345.73 cm**-1
  15:       384.96 cm**-1
  16:       450.16 cm**-1
  17:       517.12 cm**-1
  18:       557.04 cm**-1
  19:       566.79 cm**-1
  20:       646.68 cm**-1
  21:       754.82 cm**-1
  22:       794.58 cm**-1
  23:       829.00 cm**-1
  24:       930.06 cm**-1
  25:       991.19 cm**-1
  26:       991.73 cm**-1
  27:      1009.03 cm**-1
  28:      1015.91 cm**-1
  29:      1031.41 cm**-1
  30:      1034.43 cm**-1
  31:      1108.09 cm**-1
  32:      1171.34 cm**-1
  33:      1211.56 cm**-1
  34:      1246.32 cm**-1
  35:      1322.61 cm**-1
  36:      1329.80 cm**-1
  37:      1372.66 cm**-1
  38:      1394.61 cm**-1
  39:      1428.98 cm**-1
  40:      1456.41 cm**-1
  41:      1482.64 cm**-1
  42:      1507.04 cm**-1
  43:      1522.75 cm**-1
  44:      1656.62 cm**-1
  45:      2053.04 cm**-1
  46:      3009.44 cm**-1
  47:      3047.51 cm**-1
  48:      3131.13 cm**-1
  49:      3183.82 cm**-1
  50:      3187.07 cm**-1
  51:      3194.75 cm**-1
  52:      3203.86 cm**-1
  53:      3210.81 cm**-1

IR SPECTRUM
-----------

 Mode   freq       eps      Int      T**2         TX        TY        TZ
       cm**-1   L/(mol*cm) km/mol    a.u.
----------------------------------------------------------------------------
  9:      2.72   0.000000    0.00  0.000000  ( 0.000000  0.000000  0.000000)
 10:      5.03   0.000145    0.73  0.008980  ( 0.059675 -0.027200  0.068407)
 11:     13.59   0.000023    0.12  0.000527  ( 0.001770 -0.003286 -0.022641)
 12:     33.85   0.000221    1.11  0.002034  (-0.030946 -0.028236  0.016703)
 13:    186.02   0.000282    1.43  0.000474  ( 0.018410  0.010967 -0.003816)
 14:    345.73   0.002272   11.48  0.002050  (-0.010829  0.001967 -0.043922)
 15:    384.96   0.000001    0.00  0.000001  ( 0.000693  0.000094  0.000130)
 16:    450.16   0.000742    3.75  0.000514  (-0.018846 -0.011493 -0.005189)
 17:    517.12   0.409826  2071.09  0.247316  ( 0.085213  0.017358  0.489647)
 18:    557.04   1.524357  7703.47  0.853965  (-0.157455 -0.027285 -0.910180)
 19:    566.79   0.214541  1084.20  0.118122  ( 0.054013  0.016537  0.339015)
 20:    646.68   0.005687   28.74  0.002744  (-0.042755 -0.028070  0.011336)
 21:    754.82   0.008944   45.20  0.003698  (-0.050123 -0.031378  0.014168)
 22:    794.58   0.004276   21.61  0.001679  ( 0.007294 -0.000440  0.040325)
 23:    829.00   0.000034    0.17  0.000013  ( 0.002906  0.001786 -0.001017)
 24:    930.06   0.000191    0.96  0.000064  (-0.002539 -0.000889  0.007537)
 25:    991.19   0.030907  156.19  0.009731  ( 0.013125  0.014305  0.096716)
 26:    991.73   0.001746    8.83  0.000550  (-0.003517 -0.003802 -0.022862)
 27:   1009.03   0.000148    0.75  0.000046  (-0.005214 -0.003383 -0.002655)
 28:   1015.91   0.013920   70.35  0.004276  (-0.014793 -0.000304 -0.063695)
 29:   1031.41   0.001313    6.64  0.000397  (-0.002277  0.004293 -0.019330)
 30:   1034.43   0.002277   11.51  0.000687  (-0.018859 -0.013619 -0.012072)
 31:   1108.09   0.004808   24.30  0.001354  ( 0.015099 -0.012163  0.031276)
 32:   1171.34   0.004605   23.27  0.001227  ( 0.003590  0.006550  0.034220)
 33:   1211.56   0.140700  711.04  0.036240  (-0.031556 -0.015550 -0.187090)
 34:   1246.32   0.098963  500.12  0.024779  (-0.022670 -0.019632 -0.154531)
 35:   1322.61   0.733525  3706.93  0.173072  ( 0.071875  0.028670  0.408759)
 36:   1329.80   1.184617  5986.57  0.277994  (-0.096175 -0.026328 -0.517736)
 37:   1372.66   0.000579    2.92  0.000132  ( 0.006608 -0.007825  0.005162)
 38:   1394.61   0.005456   27.57  0.001221  (-0.000338  0.016468  0.030814)
 39:   1428.98   0.000392    1.98  0.000086  (-0.005860  0.004573 -0.005506)
 40:   1456.41   0.002049   10.35  0.000439  ( 0.014824  0.013682 -0.005664)
 41:   1482.64   0.011564   58.44  0.002434  (-0.014843  0.000773 -0.047043)
 42:   1507.04   0.020870  105.47  0.004322  ( 0.005897 -0.030738 -0.057809)
 43:   1522.75   0.002948   14.90  0.000604  (-0.012980  0.014289 -0.015217)
 44:   1656.62   0.194348  982.16  0.036610  ( 0.030063  0.017441  0.188155)
 45:   2053.04   0.069774  352.61  0.010606  ( 0.017012 -0.030831  0.096777)
 46:   3009.44   0.030864  155.97  0.003200  ( 0.006400  0.008715  0.055529)
 47:   3047.51   0.000145    0.73  0.000015  (-0.003225 -0.001762 -0.001139)
 48:   3131.13   0.011785   59.56  0.001175  (-0.002336  0.013936  0.031224)
 49:   3183.82   0.001834    9.27  0.000180  ( 0.001552  0.002252  0.013127)
 50:   3187.07   0.000296    1.50  0.000029  ( 0.000882 -0.002909 -0.004447)
 51:   3194.75   0.003645   18.42  0.000356  ( 0.001143  0.004569  0.018271)
 52:   3203.86   0.000314    1.59  0.000031  ( 0.003180 -0.004216  0.001648)
 53:   3210.81   0.003883   19.62  0.000377  ( 0.004735 -0.001294  0.018796)

--------------------------
THERMOCHEMISTRY AT 298.15K
--------------------------

Temperature         ... 298.15 K
Pressure            ... 1.00 atm
Total Mass          ... 138.15 AMU

Throughout the following assumptions are being made:
  (1) The electronic state is orbitally nondegenerate
  (2) There are no thermally accessible electronically excited states
  (3) Hindered rotations indicated by low frequency modes are not
      treated as such but are treated as vibrations and this may
      cause some error
  (4) All equations used are the standard statistical mechanics
      equations for an ideal gas
  (5) All vibrations are strictly harmonic

freq.       2.72  E(vib)   ...       0.59
freq.       5.03  E(vib)   ...       0.59
freq.      13.59  E(vib)   ...       0.57
freq.      33.85  E(vib)   ...       0.55
freq.     186.02  E(vib)   ...       0.37
freq.     345.73  E(vib)   ...       0.23
freq.     384.96  E(vib)   ...       0.20
freq.     450.16  E(vib)   ...       0.17
freq.     517.12  E(vib)   ...       0.13
freq.     557.04  E(vib)   ...       0.12
freq.     566.79  E(vib)   ...       0.11
freq.     646.68  E(vib)   ...       0.09
freq.     754.82  E(vib)   ...       0.06
freq.     794.58  E(vib)   ...       0.05
freq.     829.00  E(vib)   ...       0.04
freq.     930.06  E(vib)   ...       0.03
freq.     991.19  E(vib)   ...       0.02
freq.     991.73  E(vib)   ...       0.02
freq.    1009.03  E(vib)   ...       0.02
freq.    1015.91  E(vib)   ...       0.02
freq.    1031.41  E(vib)   ...       0.02
freq.    1034.43  E(vib)   ...       0.02
freq.    1108.09  E(vib)   ...       0.02
freq.    1171.34  E(vib)   ...       0.01
freq.    1211.56  E(vib)   ...       0.01
freq.    1246.32  E(vib)   ...       0.01
freq.    1322.61  E(vib)   ...       0.01
freq.    1329.80  E(vib)   ...       0.01
freq.    1372.66  E(vib)   ...       0.01
freq.    1394.61  E(vib)   ...       0.00
freq.    1428.98  E(vib)   ...       0.00
freq.    1456.41  E(vib)   ...       0.00
freq.    1482.64  E(vib)   ...       0.00
freq.    1507.04  E(vib)   ...       0.00
freq.    1522.75  E(vib)   ...       0.00
freq.    1656.62  E(vib)   ...       0.00
freq.    2053.04  E(vib)   ...       0.00
freq.    3009.44  E(vib)   ...       0.00
freq.    3047.51  E(vib)   ...       0.00
freq.    3131.13  E(vib)   ...       0.00
freq.    3183.82  E(vib)   ...       0.00
freq.    3187.07  E(vib)   ...       0.00
freq.    3194.75  E(vib)   ...       0.00
freq.    3203.86  E(vib)   ...       0.00
freq.    3210.81  E(vib)   ...       0.00

------------
INNER ENERGY
------------

The inner energy is: U= E(el) + E(ZPE) + E(vib) + E(rot) + E(trans)
    E(el)   - is the total energy from the electronic structure calculation
              = E(kin-el) + E(nuc-el) + E(el-el) + E(nuc-nuc)
    E(ZPE)  - the the zero temperature vibrational energy from the frequency calculation
    E(vib)  - the the finite temperature correction to E(ZPE) due to population
              of excited vibrational states
    E(rot)  - is the rotational thermal energy
    E(trans)- is the translational thermal energy

Summary of contributions to the inner energy U:
Electronic energy                ...   -476.52776022 Eh
Zero point energy                ...      0.13560723 Eh      85.09 kcal/mol
Thermal vibrational correction   ...      0.00654420 Eh       4.11 kcal/mol
Thermal rotational correction    ...      0.00141627 Eh       0.89 kcal/mol
Thermal translational correction ...      0.00141627 Eh       0.89 kcal/mol
-----------------------------------------------------------------------
Total thermal energy                   -476.38277624 Eh

Summary of corrections to the electronic energy:
(perhaps to be used in another calculation)
Total thermal correction                  0.00937675 Eh       5.88 kcal/mol
Non-thermal (ZPE) correction              0.13560723 Eh      85.09 kcal/mol
-----------------------------------------------------------------------
Total correction                          0.14498397 Eh      90.98 kcal/mol

--------
ENTHALPY
--------

The enthalpy is H = U + kB*T
                kB is Boltzmann's constant
Total free energy                 ...   -476.38277624 Eh
Thermal Enthalpy correction       ...      0.00094421 Eh       0.59 kcal/mol
-----------------------------------------------------------------------
Total Enthalpy                    ...   -476.38183204 Eh

Note: Only C1 symmetry has been detected, increase convergence thresholds
      if your molecule has a higher symmetry. Symmetry factor of 1.0 is
      used for the rotational entropy correction.

Note: Rotational entropy computed according to Herzberg
Infrared and Raman Spectra, Chapter V,1, Van Nostrand Reinhold, 1945
Point Group:  C1, Symmetry Number:   1
Rotational constants in cm-1:     0.120907     0.002447     0.002401

Vibrational entropy computed according to the QRRHO of S. Grimme
Chem.Eur.J. 2012 18 9955

-------
ENTROPY
-------

The entropy contributions are T*S = T*(S(el)+S(vib)+S(rot)+S(trans))
     S(el)   - electronic entropy
     S(vib)  - vibrational entropy
     S(rot)  - rotational entropy
     S(trans)- translational entropy
The entropies will be listed as multiplied by the temperature to get
units of energy

Electronic entropy                ...      0.00000000 Eh      0.00 kcal/mol
Vibrational entropy               ...      0.01425761 Eh      8.95 kcal/mol
Rotational entropy                ...      0.01619435 Eh     10.16 kcal/mol
Translational entropy             ...      0.01932890 Eh     12.13 kcal/mol
-----------------------------------------------------------------------
Final entropy term                ...      0.04978086 Eh     31.24 kcal/mol

In case the symmetry of your molecule has not been determined correctly
or in case you have a reason to use a different symmetry number we print
out the resulting rotational entropy values for sn=1,12 :
 --------------------------------------------------------
|  sn= 1 | S(rot)=       0.01619435 Eh     10.16 kcal/mol|
|  sn= 2 | S(rot)=       0.01553990 Eh      9.75 kcal/mol|
|  sn= 3 | S(rot)=       0.01515706 Eh      9.51 kcal/mol|
|  sn= 4 | S(rot)=       0.01488544 Eh      9.34 kcal/mol|
|  sn= 5 | S(rot)=       0.01467475 Eh      9.21 kcal/mol|
|  sn= 6 | S(rot)=       0.01450261 Eh      9.10 kcal/mol|
|  sn= 7 | S(rot)=       0.01435706 Eh      9.01 kcal/mol|
|  sn= 8 | S(rot)=       0.01423098 Eh      8.93 kcal/mol|
|  sn= 9 | S(rot)=       0.01411978 Eh      8.86 kcal/mol|
|  sn=10 | S(rot)=       0.01402030 Eh      8.80 kcal/mol|
|  sn=11 | S(rot)=       0.01393031 Eh      8.74 kcal/mol|
|  sn=12 | S(rot)=       0.01384815 Eh      8.69 kcal/mol|
 --------------------------------------------------------

-------------------
GIBBS FREE ENERGY
-------------------

                             ****ORCA TERMINATED NORMALLY****
TOTAL RUN TIME: 0 days 6 hours 48 minutes 31 seconds 821 msec
