                         Program Version 5.0.4 -  RELEASE  -
|  1> !B3LYP DEF2-SVP OPT FREQ D4 SOSCF
|  2>
|  3> * xyz 0 1
|  4>    C       -6.48619        0.79126       -0.00000
|  5>    C       -7.72874        0.14583       -0.00000
|  6>    C       -7.79140       -1.25169       -0.00000
|  7>    C       -6.61301       -2.00518       -0.00000
|  8>    C       -5.37125       -1.36144       -0.00000
|  9>    C       -5.30716        0.03600       -0.00000
| 10>    H       -8.64370        0.72444       -0.00000
| 11>    H       -8.75214       -1.75014       -0.00000
| 12>    H       -6.66205       -3.08640       -0.00000
| 13>    H       -4.45958       -1.94481       -0.00000
| 14>    H       -4.34359        0.52943       -0.00000
| 15>   Cl       -6.40672        2.54355       -0.00000
| 16> **                         ****END OF INPUT****
 Total Charge           Charge          ....    0
 Multiplicity           Mult            ....    1
 Number of Electrons    NEL             ....   58
Dispersion correction           -0.020838223
FINAL SINGLE POINT ENERGY      -691.355205788767
Dispersion correction            ... Starting D4
Dispersion correction           -0.020858212
FINAL SINGLE POINT ENERGY      -691.355737396787
Dispersion correction            ... Starting D4
Dispersion correction           -0.020868881
FINAL SINGLE POINT ENERGY      -691.355786366664
Dispersion correction            ... Starting D4
Dispersion correction           -0.020872620
FINAL SINGLE POINT ENERGY      -691.355803862222
Dispersion correction            ... Starting D4
Dispersion correction           -0.020871167
FINAL SINGLE POINT ENERGY      -691.355805263943
Dispersion correction            ... Starting D4
                    ***********************HURRAY********************

CARTESIAN COORDINATES (ANGSTROEM)
---------------------------------
  C     -6.486851    0.776883    0.000000
  C     -7.733811    0.145684   -0.000000
  C     -7.788996   -1.250475    0.000000
  C     -6.613079   -2.006586   -0.000000
  C     -5.373502   -1.360102   -0.000000
  C     -5.302224    0.035307    0.000000
  H     -8.645195    0.745877   -0.000000
  H     -8.761949   -1.748567    0.000000
  H     -6.662667   -3.098017   -0.000000
  H     -4.449478   -1.943966   -0.000000
  H     -4.340316    0.550643    0.000000
  Cl    -6.407461    2.524169   -0.000000

 Multiplicity           Mult            ....    1
 Number of Electrons    NEL             ....   58
 Basis Dimension        Dim             ....  127

ORBITAL ENERGIES
----------------

  NO   OCC          E(Eh)            E(eV)
   0   2.0000    -101.498825     -2761.9234
   1   2.0000     -10.244536      -278.7680
   2   2.0000     -10.201068      -277.5852
   3   2.0000     -10.201035      -277.5843
   4   2.0000     -10.200661      -277.5741
   5   2.0000     -10.200593      -277.5723
   6   2.0000     -10.197143      -277.4784
   7   2.0000      -9.453439      -257.2412
   8   2.0000      -7.222433      -196.5324
   9   2.0000      -7.212725      -196.2682
  10   2.0000      -7.212352      -196.2581
  11   2.0000      -0.883019       -24.0282
  12   2.0000      -0.828767       -22.5519
  13   2.0000      -0.749527       -20.3957
  14   2.0000      -0.725237       -19.7347
  15   2.0000      -0.613118       -16.6838
  16   2.0000      -0.594526       -16.1779
  17   2.0000      -0.522852       -14.2275
  18   2.0000      -0.469352       -12.7717
  19   2.0000      -0.462443       -12.5837
  20   2.0000      -0.432853       -11.7785
  21   2.0000      -0.430165       -11.7054
  22   2.0000      -0.395294       -10.7565
  23   2.0000      -0.363696        -9.8967
  24   2.0000      -0.361599        -9.8396
  25   2.0000      -0.330665        -8.9979
  26   2.0000      -0.305629        -8.3166
  27   2.0000      -0.265976        -7.2376
  28   2.0000      -0.246146        -6.6980
  29   0.0000      -0.018537        -0.5044
  30   0.0000      -0.016694        -0.4543
  31   0.0000       0.037551         1.0218
  32   0.0000       0.084710         2.3051
  33   0.0000       0.095640         2.6025

MULLIKEN ATOMIC CHARGES
-----------------------
   0 C :    0.043106
   1 C :    0.035141
   2 C :    0.009642
   3 C :    0.031688
   4 C :    0.009518
   5 C :    0.035303
   6 H :   -0.016001
   7 H :   -0.008261
   8 H :   -0.011726
   9 H :   -0.008164
  10 H :   -0.016178
  11 Cl:   -0.104068
Sum of atomic charges:    0.0000000

LOEWDIN ATOMIC CHARGES
----------------------
   0 C :   -0.112384
   1 C :   -0.041475
   2 C :   -0.017027
   3 C :   -0.029101
   4 C :   -0.017040
   5 C :   -0.041464
   6 H :    0.031488
   7 H :    0.030676
   8 H :    0.029087
   9 H :    0.030703
  10 H :    0.031446
  11 Cl:    0.105091

  Mayer bond orders larger than 0.100000
B(  0-C ,  1-C ) :   1.3967 B(  0-C ,  5-C ) :   1.3969 B(  0-C , 11-Cl) :   0.9680
B(  1-C ,  2-C ) :   1.3793 B(  1-C ,  6-H ) :   0.9869 B(  2-C ,  3-C ) :   1.3846
B(  2-C ,  7-H ) :   0.9808 B(  3-C ,  4-C ) :   1.3844 B(  3-C ,  8-H ) :   0.9866
B(  4-C ,  5-C ) :   1.3793 B(  4-C ,  9-H ) :   0.9809 B(  5-C , 10-H ) :   0.9868

Dispersion correction           -0.020870285
FINAL SINGLE POINT ENERGY      -691.355805531352

DIPOLE MOMENT
-------------
                                X             Y             Z
Electronic contribution:      0.41467       9.13697      -0.00000
Nuclear contribution   :     -0.44175      -9.73233       0.00000
                        -----------------------------------------
Total Dipole Moment    :     -0.02708      -0.59537       0.00000
                        -----------------------------------------
Magnitude (a.u.)       :      0.59598
Magnitude (Debye)      :      1.51486

Dispersion correction in the Hessian             ... Starting D4

VIBRATIONAL FREQUENCIES
-----------------------

Scaling factor for frequencies =  1.000000000  (already applied!)

   0:         0.00 cm**-1
   1:         0.00 cm**-1
   2:         0.00 cm**-1
   3:         0.00 cm**-1
   4:         0.00 cm**-1
   5:         0.00 cm**-1
   6:       190.01 cm**-1
   7:       298.08 cm**-1
   8:       417.76 cm**-1
   9:       421.91 cm**-1
  10:       487.37 cm**-1
  11:       626.62 cm**-1
  12:       712.71 cm**-1
  13:       715.32 cm**-1
  14:       762.75 cm**-1
  15:       849.55 cm**-1
  16:       930.70 cm**-1
  17:       997.37 cm**-1
  18:      1012.93 cm**-1
  19:      1024.31 cm**-1
  20:      1044.27 cm**-1
  21:      1090.89 cm**-1
  22:      1108.50 cm**-1
  23:      1168.21 cm**-1
  24:      1180.97 cm**-1
  25:      1314.11 cm**-1
  26:      1359.50 cm**-1
  27:      1474.82 cm**-1
  28:      1505.83 cm**-1
  29:      1640.94 cm**-1
  30:      1643.27 cm**-1
  31:      3176.90 cm**-1
  32:      3185.36 cm**-1
  33:      3197.83 cm**-1
  34:      3208.20 cm**-1
  35:      3210.02 cm**-1

IR SPECTRUM
-----------

 Mode   freq       eps      Int      T**2         TX        TY        TZ
       cm**-1   L/(mol*cm) km/mol    a.u.
----------------------------------------------------------------------------
  6:    190.01   0.000025    0.12  0.000040  ( 0.000000  0.000000 -0.006352)
  7:    298.08   0.000051    0.26  0.000053  (-0.007271  0.000330  0.000000)
  8:    417.76   0.000785    3.97  0.000586  ( 0.001093  0.024191 -0.000000)
  9:    421.91   0.000000    0.00  0.000000  (-0.000000 -0.000000  0.000016)
 10:    487.37   0.001234    6.23  0.000790  ( 0.000000  0.000000  0.028105)
 11:    626.62   0.000046    0.23  0.000023  ( 0.004793 -0.000227 -0.000000)
 12:    712.71   0.004185   21.15  0.001833  (-0.000000  0.000000  0.042808)
 13:    715.32   0.004304   21.75  0.001878  ( 0.001961  0.043290 -0.000000)
 14:    762.75   0.007749   39.16  0.003170  ( 0.000000 -0.000000 -0.056306)
 15:    849.55   0.000000    0.00  0.000000  (-0.000000 -0.000000  0.000018)
 16:    930.70   0.000395    1.99  0.000132  ( 0.000000  0.000000 -0.011503)
 17:    997.37   0.000000    0.00  0.000000  (-0.000000  0.000000 -0.000005)
 18:   1012.93   0.000927    4.68  0.000286  ( 0.000775  0.016881 -0.000000)
 19:   1024.31   0.000012    0.06  0.000004  (-0.000000 -0.000000 -0.001897)
 20:   1044.27   0.001807    9.13  0.000540  (-0.001056 -0.023215  0.000000)
 21:   1090.89   0.001238    6.25  0.000354  (-0.018804  0.000636 -0.000000)
 22:   1108.50   0.008038   40.62  0.002263  (-0.002057 -0.047526  0.000000)
 23:   1168.21   0.000027    0.13  0.000007  (-0.002665  0.000142 -0.000000)
 24:   1180.97   0.000029    0.15  0.000008  ( 0.000136  0.002778 -0.000000)
 25:   1314.11   0.000045    0.23  0.000011  (-0.003279  0.000168 -0.000000)
 26:   1359.50   0.000028    0.14  0.000007  ( 0.002552 -0.000100 -0.000000)
 27:   1474.82   0.000941    4.75  0.000199  (-0.014094  0.000625 -0.000000)
 28:   1505.83   0.008808   44.51  0.001825  ( 0.001957  0.042680 -0.000000)
 29:   1640.94   0.000691    3.49  0.000131  ( 0.011451 -0.000554 -0.000000)
 30:   1643.27   0.004435   22.41  0.000842  (-0.001322 -0.028991  0.000000)
 31:   3176.90   0.000025    0.13  0.000002  (-0.000108 -0.001562  0.000000)
 32:   3185.36   0.001540    7.78  0.000151  ( 0.012273 -0.000518 -0.000000)
 33:   3197.83   0.002303   11.64  0.000225  (-0.000612 -0.014977 -0.000000)
 34:   3208.20   0.000840    4.24  0.000082  (-0.009033  0.000306 -0.000000)
 35:   3210.02   0.000104    0.53  0.000010  (-0.000006  0.003186 -0.000000)

--------------------------
THERMOCHEMISTRY AT 298.15K
--------------------------

Temperature         ... 298.15 K
Pressure            ... 1.00 atm
Total Mass          ... 112.56 AMU

Throughout the following assumptions are being made:
  (1) The electronic state is orbitally nondegenerate
  (2) There are no thermally accessible electronically excited states
  (3) Hindered rotations indicated by low frequency modes are not
      treated as such but are treated as vibrations and this may
      cause some error
  (4) All equations used are the standard statistical mechanics
      equations for an ideal gas
  (5) All vibrations are strictly harmonic

freq.     190.01  E(vib)   ...       0.36
freq.     298.08  E(vib)   ...       0.27
freq.     417.76  E(vib)   ...       0.18
freq.     421.91  E(vib)   ...       0.18
freq.     487.37  E(vib)   ...       0.15
freq.     626.62  E(vib)   ...       0.09
freq.     712.71  E(vib)   ...       0.07
freq.     715.32  E(vib)   ...       0.07
freq.     762.75  E(vib)   ...       0.06
freq.     849.55  E(vib)   ...       0.04
freq.     930.70  E(vib)   ...       0.03
freq.     997.37  E(vib)   ...       0.02
freq.    1012.93  E(vib)   ...       0.02
freq.    1024.31  E(vib)   ...       0.02
freq.    1044.27  E(vib)   ...       0.02
freq.    1090.89  E(vib)   ...       0.02
freq.    1108.50  E(vib)   ...       0.02
freq.    1168.21  E(vib)   ...       0.01
freq.    1180.97  E(vib)   ...       0.01
freq.    1314.11  E(vib)   ...       0.01
freq.    1359.50  E(vib)   ...       0.01
freq.    1474.82  E(vib)   ...       0.00
freq.    1505.83  E(vib)   ...       0.00
freq.    1640.94  E(vib)   ...       0.00
freq.    1643.27  E(vib)   ...       0.00
freq.    3176.90  E(vib)   ...       0.00
freq.    3185.36  E(vib)   ...       0.00
freq.    3197.83  E(vib)   ...       0.00
freq.    3208.20  E(vib)   ...       0.00
freq.    3210.02  E(vib)   ...       0.00

------------
INNER ENERGY
------------

The inner energy is: U= E(el) + E(ZPE) + E(vib) + E(rot) + E(trans)
    E(el)   - is the total energy from the electronic structure calculation
              = E(kin-el) + E(nuc-el) + E(el-el) + E(nuc-nuc)
    E(ZPE)  - the the zero temperature vibrational energy from the frequency calculation
    E(vib)  - the the finite temperature correction to E(ZPE) due to population
              of excited vibrational states
    E(rot)  - is the rotational thermal energy
    E(trans)- is the translational thermal energy

Summary of contributions to the inner energy U:
Electronic energy                ...   -691.35580553 Eh
Zero point energy                ...      0.09102874 Eh      57.12 kcal/mol
Thermal vibrational correction   ...      0.00263631 Eh       1.65 kcal/mol
Thermal rotational correction    ...      0.00141627 Eh       0.89 kcal/mol
Thermal translational correction ...      0.00141627 Eh       0.89 kcal/mol
-----------------------------------------------------------------------
Total thermal energy                   -691.25930794 Eh

Summary of corrections to the electronic energy:
(perhaps to be used in another calculation)
Total thermal correction                  0.00546885 Eh       3.43 kcal/mol
Non-thermal (ZPE) correction              0.09102874 Eh      57.12 kcal/mol
-----------------------------------------------------------------------
Total correction                          0.09649759 Eh      60.55 kcal/mol

--------
ENTHALPY
--------

The enthalpy is H = U + kB*T
                kB is Boltzmann's constant
Total free energy                 ...   -691.25930794 Eh
Thermal Enthalpy correction       ...      0.00094421 Eh       0.59 kcal/mol
-----------------------------------------------------------------------
Total Enthalpy                    ...   -691.25836373 Eh

Note: Rotational entropy computed according to Herzberg
Infrared and Raman Spectra, Chapter V,1, Van Nostrand Reinhold, 1945
Point Group:  Cs, Symmetry Number:   1
Rotational constants in cm-1:     0.188469     0.051636     0.040531

Vibrational entropy computed according to the QRRHO of S. Grimme
Chem.Eur.J. 2012 18 9955

-------
ENTROPY
-------

The entropy contributions are T*S = T*(S(el)+S(vib)+S(rot)+S(trans))
     S(el)   - electronic entropy
     S(vib)  - vibrational entropy
     S(rot)  - rotational entropy
     S(trans)- translational entropy
The entropies will be listed as multiplied by the temperature to get
units of energy

Electronic entropy                ...      0.00000000 Eh      0.00 kcal/mol
Vibrational entropy               ...      0.00394757 Eh      2.48 kcal/mol
Rotational entropy                ...      0.01321107 Eh      8.29 kcal/mol
Translational entropy             ...      0.01903880 Eh     11.95 kcal/mol
-----------------------------------------------------------------------
Final entropy term                ...      0.03619744 Eh     22.71 kcal/mol

In case the symmetry of your molecule has not been determined correctly
or in case you have a reason to use a different symmetry number we print
out the resulting rotational entropy values for sn=1,12 :
 --------------------------------------------------------
|  sn= 1 | S(rot)=       0.01321107 Eh      8.29 kcal/mol|
|  sn= 2 | S(rot)=       0.01255662 Eh      7.88 kcal/mol|
|  sn= 3 | S(rot)=       0.01217378 Eh      7.64 kcal/mol|
|  sn= 4 | S(rot)=       0.01190216 Eh      7.47 kcal/mol|
|  sn= 5 | S(rot)=       0.01169147 Eh      7.34 kcal/mol|
|  sn= 6 | S(rot)=       0.01151933 Eh      7.23 kcal/mol|
|  sn= 7 | S(rot)=       0.01137378 Eh      7.14 kcal/mol|
|  sn= 8 | S(rot)=       0.01124770 Eh      7.06 kcal/mol|
|  sn= 9 | S(rot)=       0.01113650 Eh      6.99 kcal/mol|
|  sn=10 | S(rot)=       0.01103702 Eh      6.93 kcal/mol|
|  sn=11 | S(rot)=       0.01094703 Eh      6.87 kcal/mol|
|  sn=12 | S(rot)=       0.01086487 Eh      6.82 kcal/mol|
 --------------------------------------------------------

-------------------
GIBBS FREE ENERGY
-------------------

The Gibbs free energy is G = H - T*S

Total enthalpy                    ...   -691.25836373 Eh
Total entropy correction          ...     -0.03619744 Eh    -22.71 kcal/mol
-----------------------------------------------------------------------
Final Gibbs free energy         ...   -691.29456117 Eh

For completeness - the Gibbs free energy minus the electronic energy
G-E(el)                           ...      0.06124436 Eh     38.43 kcal/mol

                             ****ORCA TERMINATED NORMALLY****
TOTAL RUN TIME: 0 days 0 hours 26 minutes 40 seconds 100 msec
