                         Program Version 4.2.1 -  RELEASE  -
|  1> !B3LYP DEF2-SVP D4 FREQ
|  2>
|  3> %scf
|  4> maxIter 2000
|  5> end
|  6>
|  7> * xyz 1 1
|  8>    C       -0.98285        2.23360        0.49556
|  9>    C       -2.13806        2.71422       -0.19847
| 10>    C       -3.10001        1.77032       -0.62520
| 11>    C       -2.93616        0.40738       -0.38112
| 12>    C       -1.81049       -0.05060        0.29399
| 13>    C       -0.84248        0.85193        0.72873
| 14>    C        0.11056        3.14198        0.99913
| 15>    H       -3.68672       -0.29628       -0.71778
| 16>    H       -3.99004        2.08693       -1.15388
| 17>    H        0.91923        2.57742        1.51064
| 18>    H        0.57388        3.68529        0.14913
| 19>    H       -0.30405        3.86354        1.73384
| 20>    H        0.02347        0.46498        1.25198
| 21>    H       -1.68655       -1.10944        0.48174
| 22>    N       -2.36332        4.10667       -0.47990
| 23>    O       -1.58316        4.94322       -0.14187
| 24>    O       -3.34783        4.44868       -1.06373
| 25>    H       -6.99345        2.33724        5.45863
| 26> *
| 27>
| 28>                          ****END OF INPUT****

CARTESIAN COORDINATES (ANGSTROEM)
---------------------------------
  C     -0.982850    2.233600    0.495560
  C     -2.138060    2.714220   -0.198470
  C     -3.100010    1.770320   -0.625200
  C     -2.936160    0.407380   -0.381120
  C     -1.810490   -0.050600    0.293990
  C     -0.842480    0.851930    0.728730
  C      0.110560    3.141980    0.999130
  H     -3.686720   -0.296280   -0.717780
  H     -3.990040    2.086930   -1.153880
  H      0.919230    2.577420    1.510640
  H      0.573880    3.685290    0.149130
  H     -0.304050    3.863540    1.733840
  H      0.023470    0.464980    1.251980
  H     -1.686550   -1.109440    0.481740
  N     -2.363320    4.106670   -0.479900
  O     -1.583160    4.943220   -0.141870
  O     -3.347830    4.448680   -1.063730
  H     -6.993450    2.337240    5.458630

 Total Charge           Charge          ....    1
 Multiplicity           Mult            ....    1
 Number of Electrons    NEL             ....   72
 Basis Dimension        Dim             ....  180

ORBITAL ENERGIES
----------------

  NO   OCC          E(Eh)            E(eV)
   0   2.0000     -19.213554      -522.8274
   1   2.0000     -19.211409      -522.7690
   2   2.0000     -14.622567      -397.9003
   3   2.0000     -10.320179      -280.8263
   4   2.0000     -10.300265      -280.2845
   5   2.0000     -10.287905      -279.9481
   6   2.0000     -10.283164      -279.8191
   7   2.0000     -10.278636      -279.6959
   8   2.0000     -10.277938      -279.6769
   9   2.0000     -10.259959      -279.1877
  10   2.0000      -1.311807       -35.6961
  11   2.0000      -1.114643       -30.3310
  12   2.0000      -0.953792       -25.9540
  13   2.0000      -0.879287       -23.9266
  14   2.0000      -0.850594       -23.1458
  15   2.0000      -0.784342       -21.3430
  16   2.0000      -0.744540       -20.2600
  17   2.0000      -0.682287       -18.5660
  18   2.0000      -0.652027       -17.7426
  19   2.0000      -0.618974       -16.8431
  20   2.0000      -0.609102       -16.5745
  21   2.0000      -0.577115       -15.7041
  22   2.0000      -0.570828       -15.5330
  23   2.0000      -0.546596       -14.8736
  24   2.0000      -0.527669       -14.3586
  25   2.0000      -0.496949       -13.5227
  26   2.0000      -0.496198       -13.5022
  27   2.0000      -0.466031       -12.6813
  28   2.0000      -0.447362       -12.1733
  29   2.0000      -0.441629       -12.0173
  30   2.0000      -0.434566       -11.8251
  31   2.0000      -0.377689       -10.2775
  32   2.0000      -0.369486       -10.0542
  33   2.0000      -0.353850        -9.6288
  34   2.0000      -0.340639        -9.2693
  35   2.0000      -0.338926        -9.2227
  36   0.0000      -0.531160       -14.4536
  37   0.0000      -0.152186        -4.1412
  38   0.0000      -0.097844        -2.6625
  39   0.0000      -0.065480        -1.7818
  40   0.0000      -0.011051        -0.3007

MULLIKEN ATOMIC CHARGES
-----------------------
   0 C :   -0.108675
   1 C :    0.151044
   2 C :   -0.032900
   3 C :    0.019193
   4 C :    0.054548
   5 C :   -0.032086
   6 C :    0.109277
   7 H :   -0.004503
   8 H :   -0.000429
   9 H :    0.009007
  10 H :    0.054395
  11 H :    0.033975
  12 H :   -0.010585
  13 H :   -0.000978
  14 N :    0.239885
  15 O :   -0.238204
  16 O :   -0.242961
  17 H :    1.000000
Sum of atomic charges:    1.0000000

LOEWDIN ATOMIC CHARGES
----------------------
   0 C :    0.008702
   1 C :   -0.042113
   2 C :    0.004315
   3 C :   -0.030407
   4 C :    0.005640
   5 C :   -0.023250
   6 C :   -0.046595
   7 H :    0.032573
   8 H :    0.037334
   9 H :    0.027844
  10 H :    0.048921
  11 H :    0.039006
  12 H :    0.033854
  13 H :    0.034046
  14 N :    0.260122
  15 O :   -0.186498
  16 O :   -0.203493
  17 H :    1.000000

  Mayer bond orders larger than 0.100000
B(  0-C ,  1-C ) :   1.3456 B(  0-C ,  5-C ) :   1.3822 B(  0-C ,  6-C ) :   1.1005
B(  1-C ,  2-C ) :   1.3456 B(  1-C , 14-N ) :   0.8984 B(  2-C ,  3-C ) :   1.3727
B(  2-C ,  8-H ) :   0.9859 B(  3-C ,  4-C ) :   1.3546 B(  3-C ,  7-H ) :   0.9873
B(  4-C ,  5-C ) :   1.3715 B(  4-C , 13-H ) :   0.9876 B(  5-C , 12-H ) :   0.9893
B(  6-C ,  9-H ) :   0.9441 B(  6-C , 10-H ) :   0.9369 B(  6-C , 11-H ) :   0.9402
B( 14-N , 15-O ) :   1.5245 B( 14-N , 16-O ) :   1.5532 B( 15-O , 16-O ) :   0.2543

Dispersion correction           -0.027330169
FINAL SINGLE POINT ENERGY      -475.467488914357

DIPOLE MOMENT
-------------
                                X             Y             Z
Electronic contribution:     -9.26843       4.31147       2.42203
Nuclear contribution   :      0.32258      -6.41731       8.23480
                        -----------------------------------------
Total Dipole Moment    :     -8.94585      -2.10584      10.65683
                        -----------------------------------------
Magnitude (a.u.)       :     14.07234
Magnitude (Debye)      :     35.76904

Dispersion correction in the Hessian             ...

VIBRATIONAL FREQUENCIES
-----------------------

Scaling factor for frequencies =  1.000000000  (already applied!)

   0:         0.00 cm**-1
   1:         0.00 cm**-1
   2:         0.00 cm**-1
   3:         0.00 cm**-1
   4:         0.00 cm**-1
   5:         0.00 cm**-1
   6:      -223.15 cm**-1 ***imaginary mode***
   7:       -48.08 cm**-1 ***imaginary mode***
   8:        21.72 cm**-1
   9:        24.24 cm**-1
  10:       126.66 cm**-1
  11:       211.30 cm**-1
  12:       231.79 cm**-1
  13:       363.48 cm**-1
  14:       374.34 cm**-1
  15:       398.10 cm**-1
  16:       438.46 cm**-1
  17:       514.50 cm**-1
  18:       529.91 cm**-1
  19:       563.32 cm**-1
  20:       687.62 cm**-1
  21:       700.49 cm**-1
  22:       715.29 cm**-1
  23:       777.71 cm**-1
  24:       810.93 cm**-1
  25:       861.88 cm**-1
  26:       930.94 cm**-1
  27:       970.83 cm**-1
  28:      1005.10 cm**-1
  29:      1018.10 cm**-1
  30:      1068.43 cm**-1
  31:      1083.98 cm**-1
  32:      1127.56 cm**-1
  33:      1159.78 cm**-1
  34:      1193.85 cm**-1
  35:      1210.98 cm**-1
  36:      1276.15 cm**-1
  37:      1337.69 cm**-1
  38:      1408.04 cm**-1
  39:      1448.60 cm**-1
  40:      1472.24 cm**-1
  41:      1479.25 cm**-1
  42:      1486.44 cm**-1
  43:      1588.77 cm**-1
  44:      1628.10 cm**-1
  45:      1643.93 cm**-1
  46:      1854.02 cm**-1
  47:      2955.41 cm**-1
  48:      3026.19 cm**-1
  49:      3048.33 cm**-1
  50:      3274.06 cm**-1
  51:      3282.75 cm**-1
  52:      3293.47 cm**-1
  53:      3300.44 cm**-1

IR SPECTRUM
-----------

 Mode    freq (cm**-1)   T**2         TX         TY         TZ
-------------------------------------------------------------------
   8:        21.72  846.780512  (-23.072154  16.978509   5.117271)
   9:        24.24  696.262259  ( 12.976190  15.061849  17.349970)
  10:       126.66    2.489908  (  0.354230   1.377045   0.684234)
  11:       211.30    2.777568  (  1.380779   0.057800   0.931491)
  12:       231.79    1.423275  (  0.554075  -0.058548   1.054916)
  13:       363.48    1.399857  ( -0.584470   0.916433  -0.467336)
  14:       374.34    0.867809  (  0.817424  -0.429283   0.123867)
  15:       398.10    0.628655  ( -0.292566  -0.729064  -0.107356)
  16:       438.46    0.488217  (  0.109325   0.341087  -0.599938)
  17:       514.50    6.056257  (  1.011021  -0.422322  -2.203574)
  18:       529.91    0.181919  ( -0.222280  -0.361850  -0.039687)
  19:       563.32    0.229388  (  0.079259   0.471054  -0.034854)
  20:       687.62    9.085300  (  0.644349  -2.867855   0.667473)
  21:       700.49   35.838973  ( -2.803769   0.693734   5.243719)
  22:       715.29   18.660439  (  2.134504  -0.375209  -3.736784)
  23:       777.71    0.903968  ( -0.417215   0.056900   0.852445)
  24:       810.93    3.166086  ( -0.812286   1.474251  -0.576941)
  25:       861.88    0.048212  ( -0.195045   0.008649  -0.100472)
  26:       930.94   52.276750  (  1.427456  -6.916722   1.548573)
  27:       970.83    0.642716  ( -0.335246  -0.042124   0.727016)
  28:      1005.10    0.011029  (  0.098864  -0.008988  -0.034271)
  29:      1018.10    0.670899  (  0.490341  -0.585168   0.296721)
  30:      1068.43    5.839490  (  1.153249   2.088964   0.381755)
  31:      1083.98    2.602585  (  0.740276  -0.181675  -1.421819)
  32:      1127.56    8.171637  ( -0.824741  -2.732221  -0.162500)
  33:      1159.78    5.608767  ( -1.277987   1.770691  -0.916608)
  34:      1193.85   17.348392  ( -1.328360   3.776238  -1.150600)
  35:      1210.98   16.891928  (  1.301199  -3.731464   1.129154)
  36:      1276.15    3.557315  ( -0.350712  -1.853187   0.003402)
  37:      1337.69   13.683617  ( -3.131650  -1.068121  -1.653935)
  38:      1408.04    5.637539  ( -0.552081   2.273037  -0.407488)
  39:      1448.60    4.033124  (  1.563771  -0.812430   0.963172)
  40:      1472.24    7.218441  ( -1.487024   0.281028   2.219960)
  41:      1479.25    5.731593  ( -2.153364  -0.132249  -1.037848)
  42:      1486.44   14.492899  (  3.331752  -0.056235   1.840968)
  43:      1588.77  284.248674  (  3.572186 -16.040925   3.765222)
  44:      1628.10    0.082332  ( -0.227748  -0.158161  -0.073813)
  45:      1643.93    3.782551  (  0.535587   1.867933   0.080768)
  46:      1854.02  261.800001  (-13.950514  -3.618388  -7.354619)
  47:      2955.41    8.426956  (  2.169333   0.521964   1.857015)
  48:      3026.19   18.159820  ( -3.521035   1.848549  -1.531339)
  49:      3048.33    2.403151  (  0.210820  -0.510761  -1.448389)
  50:      3274.06    0.366547  (  0.214214   0.559878   0.084828)
  51:      3282.75    5.194090  (  1.991303   0.199473   1.090419)
  52:      3293.47    2.077493  ( -0.199534  -1.425456   0.075866)
  53:      3300.44    4.407330  (  0.008004  -2.070923   0.344304)

--------------------------
THERMOCHEMISTRY AT 298.15K
--------------------------

Temperature         ... 298.15 K
Pressure            ... 1.00 atm
Total Mass          ... 138.15 AMU

Throughout the following assumptions are being made:
  (1) The electronic state is orbitally nondegenerate
  (2) There are no thermally accessible electronically excited states
  (3) Hindered rotations indicated by low frequency modes are not
      treated as such but are treated as vibrations and this may
      cause some error
  (4) All equations used are the standard statistical mechanics
      equations for an ideal gas
  (5) All vibrations are strictly harmonic

freq.      21.72  E(vib)   ...       0.56
freq.      24.24  E(vib)   ...       0.56
freq.     126.66  E(vib)   ...       0.43
freq.     211.30  E(vib)   ...       0.34
freq.     231.79  E(vib)   ...       0.32
freq.     363.48  E(vib)   ...       0.22
freq.     374.34  E(vib)   ...       0.21
freq.     398.10  E(vib)   ...       0.20
freq.     438.46  E(vib)   ...       0.17
freq.     514.50  E(vib)   ...       0.13
freq.     529.91  E(vib)   ...       0.13
freq.     563.32  E(vib)   ...       0.11
freq.     687.62  E(vib)   ...       0.07
freq.     700.49  E(vib)   ...       0.07
freq.     715.29  E(vib)   ...       0.07
freq.     777.71  E(vib)   ...       0.05
freq.     810.93  E(vib)   ...       0.05
freq.     861.88  E(vib)   ...       0.04
freq.     930.94  E(vib)   ...       0.03
freq.     970.83  E(vib)   ...       0.03
freq.    1005.10  E(vib)   ...       0.02
freq.    1018.10  E(vib)   ...       0.02
freq.    1068.43  E(vib)   ...       0.02
freq.    1083.98  E(vib)   ...       0.02
freq.    1127.56  E(vib)   ...       0.01
freq.    1159.78  E(vib)   ...       0.01
freq.    1193.85  E(vib)   ...       0.01
freq.    1210.98  E(vib)   ...       0.01
freq.    1276.15  E(vib)   ...       0.01
freq.    1337.69  E(vib)   ...       0.01
freq.    1408.04  E(vib)   ...       0.00
freq.    1448.60  E(vib)   ...       0.00
freq.    1472.24  E(vib)   ...       0.00
freq.    1479.25  E(vib)   ...       0.00
freq.    1486.44  E(vib)   ...       0.00
freq.    1588.77  E(vib)   ...       0.00
freq.    1628.10  E(vib)   ...       0.00
freq.    1643.93  E(vib)   ...       0.00
freq.    1854.02  E(vib)   ...       0.00
freq.    2955.41  E(vib)   ...       0.00
freq.    3026.19  E(vib)   ...       0.00
freq.    3048.33  E(vib)   ...       0.00
freq.    3274.06  E(vib)   ...       0.00
freq.    3282.75  E(vib)   ...       0.00
freq.    3293.47  E(vib)   ...       0.00
freq.    3300.44  E(vib)   ...       0.00

------------
INNER ENERGY
------------

The inner energy is: U= E(el) + E(ZPE) + E(vib) + E(rot) + E(trans)
    E(el)   - is the total energy from the electronic structure calculation
              = E(kin-el) + E(nuc-el) + E(el-el) + E(nuc-nuc)
    E(ZPE)  - the the zero temperature vibrational energy from the frequency calculation
    E(vib)  - the the finite temperature correction to E(ZPE) due to population
              of excited vibrational states
    E(rot)  - is the rotational thermal energy
    E(trans)- is the translational thermal energy

Summary of contributions to the inner energy U:
Electronic energy                ...   -475.46748891 Eh
Zero point energy                ...      0.13196322 Eh      82.81 kcal/mol
Thermal vibrational correction   ...      0.00630185 Eh       3.95 kcal/mol
Thermal rotational correction    ...      0.00141627 Eh       0.89 kcal/mol
Thermal translational correction ...      0.00141627 Eh       0.89 kcal/mol
-----------------------------------------------------------------------
Total thermal energy                   -475.32639130 Eh

Summary of corrections to the electronic energy:
(perhaps to be used in another calculation)
Total thermal correction                  0.00913440 Eh       5.73 kcal/mol
Non-thermal (ZPE) correction              0.13196322 Eh      82.81 kcal/mol
-----------------------------------------------------------------------
Total correction                          0.14109762 Eh      88.54 kcal/mol

--------
ENTHALPY
--------

The enthalpy is H = U + kB*T
                kB is Boltzmann's constant
Total free energy                 ...   -475.32639130 Eh
Thermal Enthalpy correction       ...      0.00094421 Eh       0.59 kcal/mol
-----------------------------------------------------------------------
Total Enthalpy                    ...   -475.32544709 Eh

Note: Only C1 symmetry has been detected, increase convergence thresholds
      if your molecule has a higher symmetry. Symmetry factor of 1.0 is
      used for the rotational entropy correction.

Note: Rotational entropy computed according to Herzberg
Infrared and Raman Spectra, Chapter V,1, Van Nostrand Reinhold, 1945
Point Group:  C1, Symmetry Number:   1
Rotational constants in cm-1:     0.061444     0.036625     0.026796

Vibrational entropy computed according to the QRRHO of S. Grimme
Chem.Eur.J. 2012 18 9955

-------
ENTROPY
-------

The entropy contributions are T*S = T*(S(el)+S(vib)+S(rot)+S(trans))
     S(el)   - electronic entropy
     S(vib)  - vibrational entropy
     S(rot)  - rotational entropy
     S(trans)- translational entropy
The entropies will be listed as mutliplied by the temperature to get
units of energy

Electronic entropy                ...      0.00000000 Eh      0.00 kcal/mol
Vibrational entropy               ...      0.01118299 Eh      7.02 kcal/mol
Rotational entropy                ...      0.01409772 Eh      8.85 kcal/mol
Translational entropy             ...      0.01932890 Eh     12.13 kcal/mol
-----------------------------------------------------------------------
Final entropy term                ...      0.04460960 Eh     27.99 kcal/mol

In case the symmetry of your molecule has not been determined correctly
or in case you have a reason to use a different symmetry number we print
out the resulting rotational entropy values for sn=1,12 :
 --------------------------------------------------------
|  sn= 1 | S(rot)=       0.01409772 Eh      8.85 kcal/mol|
|  sn= 2 | S(rot)=       0.01344326 Eh      8.44 kcal/mol|
|  sn= 3 | S(rot)=       0.01306043 Eh      8.20 kcal/mol|
|  sn= 4 | S(rot)=       0.01278880 Eh      8.03 kcal/mol|
|  sn= 5 | S(rot)=       0.01257812 Eh      7.89 kcal/mol|
|  sn= 6 | S(rot)=       0.01240597 Eh      7.78 kcal/mol|
|  sn= 7 | S(rot)=       0.01226042 Eh      7.69 kcal/mol|
|  sn= 8 | S(rot)=       0.01213435 Eh      7.61 kcal/mol|
|  sn= 9 | S(rot)=       0.01202314 Eh      7.54 kcal/mol|
|  sn=10 | S(rot)=       0.01192366 Eh      7.48 kcal/mol|
|  sn=11 | S(rot)=       0.01183367 Eh      7.43 kcal/mol|
|  sn=12 | S(rot)=       0.01175151 Eh      7.37 kcal/mol|
 --------------------------------------------------------

-------------------
GIBBS FREE ENERGY

                             ****ORCA TERMINATED NORMALLY****
TOTAL RUN TIME: 0 days 11 hours 57 minutes 18 seconds 925 msec
