                         Program Version 5.0.4 -  RELEASE  -
|  1> ! UKS B3LYP def2-TZVP tightscf
|  2> %scf
|  3> smeartemp 273.15
|  4> end
|  5>
|  6> * xyz 0 1
|  7>   C      -4.127240      1.598090      0.000000
|  8>   C      -5.236140      0.753090      0.000000
|  9>   C      -5.058790     -0.629750      0.000000
| 10>   C      -3.772550     -1.167590      0.000000
| 11>   C      -2.663650     -0.322590      0.000000
| 12>   C      -2.840990      1.060250      0.000000
| 13>   H      -4.265550      2.676550      0.000000
| 14>   H      -1.976170      1.719260      0.000000
| 15>   H      -1.660520     -0.742040      0.000000
| 16>   H      -3.634240     -2.246050      0.000000
| 17>   H      -5.923620     -1.288760      0.000000
| 18>   H      -6.239270      1.172540      0.000000
| 19> **                         ****END OF INPUT****

CARTESIAN COORDINATES (ANGSTROEM)
---------------------------------
  C     -4.127240    1.598090    0.000000
  C     -5.236140    0.753090    0.000000
  C     -5.058790   -0.629750    0.000000
  C     -3.772550   -1.167590    0.000000
  C     -2.663650   -0.322590    0.000000
  C     -2.840990    1.060250    0.000000
  H     -4.265550    2.676550    0.000000
  H     -1.976170    1.719260    0.000000
  H     -1.660520   -0.742040    0.000000
  H     -3.634240   -2.246050    0.000000
  H     -5.923620   -1.288760    0.000000
  H     -6.239270    1.172540    0.000000

 Total Charge           Charge          ....    0
 Multiplicity           Mult            ....    1
 Number of Electrons    NEL             ....   42
 Basis Dimension        Dim             ....  222

ORBITAL ENERGIES
----------------
                 SPIN UP ORBITALS
  NO   OCC          E(Eh)            E(eV)
   0   1.0000     -10.174840      -276.8715
   1   1.0000     -10.174611      -276.8652
   2   1.0000     -10.174605      -276.8651
   3   1.0000     -10.174041      -276.8497
   4   1.0000     -10.174035      -276.8496
   5   1.0000     -10.173766      -276.8422
   6   1.0000      -0.853576       -23.2270
   7   1.0000      -0.745256       -20.2794
   8   1.0000      -0.745252       -20.2793
   9   1.0000      -0.602193       -16.3865
  10   1.0000      -0.602191       -16.3865
  11   1.0000      -0.523791       -14.2531
  12   1.0000      -0.460489       -12.5305
  13   1.0000      -0.447566       -12.1789
  14   1.0000      -0.421943       -11.4817
  15   1.0000      -0.421937       -11.4815
  16   1.0000      -0.369046       -10.0423
  17   1.0000      -0.345177        -9.3927
  18   1.0000      -0.345176        -9.3927
  19   1.0000      -0.255808        -6.9609
  20   1.0000      -0.255803        -6.9608
  21   0.0000      -0.011941        -0.3249
  22   0.0000      -0.011936        -0.3248
  23   0.0000       0.046837         1.2745
  24   0.0000       0.078873         2.1462
  25   0.0000       0.078878         2.1464

                 SPIN DOWN ORBITALS
  NO   OCC          E(Eh)            E(eV)
   0   1.0000     -10.174840      -276.8715
   1   1.0000     -10.174611      -276.8652
   2   1.0000     -10.174605      -276.8651
   3   1.0000     -10.174041      -276.8497
   4   1.0000     -10.174035      -276.8496
   5   1.0000     -10.173766      -276.8422
   6   1.0000      -0.853576       -23.2270
   7   1.0000      -0.745256       -20.2794
   8   1.0000      -0.745252       -20.2793
   9   1.0000      -0.602193       -16.3865
  10   1.0000      -0.602191       -16.3865
  11   1.0000      -0.523791       -14.2531
  12   1.0000      -0.460489       -12.5305
  13   1.0000      -0.447566       -12.1789
  14   1.0000      -0.421943       -11.4817
  15   1.0000      -0.421937       -11.4815
  16   1.0000      -0.369046       -10.0423
  17   1.0000      -0.345177        -9.3927
  18   1.0000      -0.345176        -9.3927
  19   1.0000      -0.255808        -6.9609
  20   1.0000      -0.255803        -6.9608
  21   0.0000      -0.011941        -0.3249
  22   0.0000      -0.011936        -0.3248
  23   0.0000       0.046837         1.2745
  24   0.0000       0.078873         2.1462
  25   0.0000       0.078878         2.1464

LOEWDIN ATOMIC CHARGES AND SPIN POPULATIONS
-------------------------------------------
   0 C :   -0.141645    0.000000
   1 C :   -0.141679    0.000000
   2 C :   -0.141641    0.000000
   3 C :   -0.141648    0.000000
   4 C :   -0.141678    0.000000
   5 C :   -0.141639    0.000000
   6 H :    0.141650    0.000000
   7 H :    0.141647    0.000000
   8 H :    0.141666    0.000000
   9 H :    0.141651    0.000000
  10 H :    0.141649    0.000000
  11 H :    0.141666    0.000000

  Mayer bond orders larger than 0.100000
B(  0-C ,  1-C ) :   1.4147 B(  0-C ,  5-C ) :   1.4143 B(  0-C ,  6-H ) :   0.9659
B(  1-C ,  2-C ) :   1.4144 B(  1-C , 11-H ) :   0.9658 B(  2-C ,  3-C ) :   1.4143
B(  2-C , 10-H ) :   0.9660 B(  3-C ,  4-C ) :   1.4148 B(  3-C ,  9-H ) :   0.9659
B(  4-C ,  5-C ) :   1.4145 B(  4-C ,  8-H ) :   0.9657 B(  5-C ,  7-H ) :   0.9660

FINAL SINGLE POINT ENERGY      -232.183230962159

DIPOLE MOMENT
-------------
                                X             Y             Z
Electronic contribution:      0.00001       0.00000      -0.00000
Nuclear contribution   :     -0.00001      -0.00000       0.00000
                        -----------------------------------------
Total Dipole Moment    :      0.00000       0.00000      -0.00000
                        -----------------------------------------
Magnitude (a.u.)       :      0.00000
Magnitude (Debye)      :      0.00001

Rotational constants in cm-1:     0.190144     0.190142     0.095071
Rotational constants in MHz :  5700.361471  5700.315818  2850.169322

                             ****ORCA TERMINATED NORMALLY****
TOTAL RUN TIME: 0 days 0 hours 2 minutes 3 seconds 778 msec
