                         Program Version 5.0.4 -  RELEASE  -
|  1> !B3LYP D3 DEF2-SVP KEEPDENS
|  2> * xyz 1 2
|  3>   C      -4.127240      1.598090      0.000000
|  4>   C      -5.236140      0.753090      0.000000
|  5>   C      -5.058790     -0.629750      0.000000
|  6>   C      -3.772550     -1.167590      0.000000
|  7>   C      -2.663650     -0.322590      0.000000
|  8>   C      -2.840990      1.060250      0.000000
|  9>   H      -4.265550      2.676550      0.000000
| 10>   H      -1.976170      1.719260      0.000000
| 11>   H      -1.660520     -0.742040      0.000000
| 12>   H      -3.634240     -2.246050      0.000000
| 13>   H      -5.923620     -1.288760      0.000000
| 14>   H      -6.239270      1.172540      0.000000
| 15> *
| 16>
| 17>                          ****END OF INPUT****

CARTESIAN COORDINATES (ANGSTROEM)
---------------------------------
  C     -4.127240    1.598090    0.000000
  C     -5.236140    0.753090    0.000000
  C     -5.058790   -0.629750    0.000000
  C     -3.772550   -1.167590    0.000000
  C     -2.663650   -0.322590    0.000000
  C     -2.840990    1.060250    0.000000
  H     -4.265550    2.676550    0.000000
  H     -1.976170    1.719260    0.000000
  H     -1.660520   -0.742040    0.000000
  H     -3.634240   -2.246050    0.000000
  H     -5.923620   -1.288760    0.000000
  H     -6.239270    1.172540    0.000000

 Total Charge           Charge          ....    1
 Multiplicity           Mult            ....    2
 Number of Electrons    NEL             ....   41
 Basis Dimension        Dim             ....  114

ORBITAL ENERGIES
----------------
                 SPIN UP ORBITALS
  NO   OCC          E(Eh)            E(eV)
   0   1.0000     -10.448244      -284.3112
   1   1.0000     -10.448199      -284.3100
   2   1.0000     -10.435013      -283.9512
   3   1.0000     -10.434968      -283.9499
   4   1.0000     -10.409844      -283.2663
   5   1.0000     -10.409800      -283.2651
   6   1.0000      -1.094305       -29.7775
   7   1.0000      -0.990550       -26.9542
   8   1.0000      -0.967164       -26.3179
   9   1.0000      -0.830686       -22.6041
  10   1.0000      -0.829812       -22.5803
  11   1.0000      -0.747327       -20.3358
  12   1.0000      -0.688872       -18.7452
  13   1.0000      -0.675027       -18.3684
  14   1.0000      -0.655774       -17.8445
  15   1.0000      -0.638807       -17.3828
  16   1.0000      -0.614491       -16.7211
  17   1.0000      -0.572170       -15.5695
  18   1.0000      -0.569905       -15.5079
  19   1.0000      -0.515481       -14.0270
  20   1.0000      -0.482618       -13.1327
  21   0.0000      -0.256747        -6.9864
  22   0.0000      -0.232379        -6.3234
  23   0.0000      -0.118567        -3.2264
  24   0.0000      -0.083575        -2.2742
  25   0.0000      -0.076584        -2.0840

                 SPIN DOWN ORBITALS
  NO   OCC          E(Eh)            E(eV)
   0   1.0000     -10.442467      -284.1540
   1   1.0000     -10.442430      -284.1530
   2   1.0000     -10.431789      -283.8634
   3   1.0000     -10.431748      -283.8623
   4   1.0000     -10.411220      -283.3037
   5   1.0000     -10.411176      -283.3025
   6   1.0000      -1.083099       -29.4726
   7   1.0000      -0.971026       -26.4230
   8   1.0000      -0.964719       -26.2513
   9   1.0000      -0.824691       -22.4410
  10   1.0000      -0.821261       -22.3476
  11   1.0000      -0.744730       -20.2651
  12   1.0000      -0.684153       -18.6168
  13   1.0000      -0.670766       -18.2525
  14   1.0000      -0.651073       -17.7166
  15   1.0000      -0.638612       -17.3775
  16   1.0000      -0.581399       -15.8207
  17   1.0000      -0.570125       -15.5139
  18   1.0000      -0.566955       -15.4276
  19   1.0000      -0.476783       -12.9739
  20   0.0000      -0.420617       -11.4456
  21   0.0000      -0.219894        -5.9836
  22   0.0000      -0.216462        -5.8902
  23   0.0000      -0.117085        -3.1861
  24   0.0000      -0.074731        -2.0335

MULLIKEN ATOMIC CHARGES AND SPIN POPULATIONS
--------------------------------------------
   0 C :    0.090317    0.227973
   1 C :    0.122612    0.419490
   2 C :    0.040021   -0.122626
   3 C :    0.090326    0.227971
   4 C :    0.122608    0.419485
   5 C :    0.040032   -0.122625
   6 H :    0.084228   -0.010355
   7 H :    0.073684    0.002726
   8 H :    0.089127   -0.017205
   9 H :    0.084227   -0.010355
  10 H :    0.073689    0.002726
  11 H :    0.089128   -0.017205
Sum of atomic charges         :    1.0000000

LOEWDIN ATOMIC CHARGES AND SPIN POPULATIONS
-------------------------------------------
   0 C :    0.109733    0.208221
   1 C :    0.161910    0.356269
   2 C :    0.017259   -0.060147
   3 C :    0.109733    0.208219
   4 C :    0.161911    0.356265
   5 C :    0.017262   -0.060147
   6 H :    0.071092   -0.001660
   7 H :    0.066850   -0.000343
   8 H :    0.073152   -0.002337
   9 H :    0.071093   -0.001660
  10 H :    0.066852   -0.000343
  11 H :    0.073153   -0.002337

  Mayer bond orders larger than 0.100000
B(  0-C ,  1-C ) :   1.1679 B(  0-C ,  4-C ) :   0.1067 B(  0-C ,  5-C ) :   1.4606
B(  0-C ,  6-H ) :   0.9864 B(  1-C ,  2-C ) :   1.3105 B(  1-C ,  3-C ) :   0.1067
B(  1-C , 11-H ) :   0.9855 B(  2-C ,  3-C ) :   1.4606 B(  2-C , 10-H ) :   0.9883
B(  3-C ,  4-C ) :   1.1679 B(  3-C ,  9-H ) :   0.9864 B(  4-C ,  5-C ) :   1.3105
B(  4-C ,  8-H ) :   0.9855 B(  5-C ,  7-H ) :   0.9883

Dispersion correction           -0.018914963
FINAL SINGLE POINT ENERGY      -231.612516960646

DIPOLE MOMENT
-------------
                                X             Y             Z
Electronic contribution:      0.00001       0.00000      -0.00000
Nuclear contribution   :     -0.00001      -0.00000       0.00000
                        -----------------------------------------
Total Dipole Moment    :      0.00000       0.00000      -0.00000
                        -----------------------------------------
Magnitude (a.u.)       :      0.00000
Magnitude (Debye)      :      0.00000

Rotational constants in cm-1:     0.190144     0.190142     0.095071
Rotational constants in MHz :  5700.361471  5700.315818  2850.169322

                             ****ORCA TERMINATED NORMALLY****
TOTAL RUN TIME: 0 days 0 hours 0 minutes 43 seconds 645 msec
