                         Program Version 5.0.4 -  RELEASE  -
|  1> !B3LYP/G DEF2-TZVP OPT FREQ D4 SLOWCONV
|  2>
|  3> %geom
|  4> optimizeHydrogens true
|  5> end
|  6>
|  7> * xyz 1 1
|  8>   C   -3.19019345963220      2.58648065070027     -0.90289722183473
|  9>   C   -4.28243793183127      1.77986474771471     -1.32816880521780
| 10>   C   -4.03428908280950      0.65574585219654     -2.06684973085272
| 11>   C   -2.73768807364263      0.27246911206576     -2.42924051920160
| 12>   C   -1.65480662426904      1.06865423570923     -2.01613197024096
| 13>   C   -1.87747813610199      2.20009483941764     -1.26502258264009
| 14>   C   -3.44620938324264      3.81445756285799     -0.11801678663163
| 15>   H   -2.59203346411067     -0.62236961970160     -3.01755783025785
| 16>   H   -5.30005490180031      2.04913068478388     -1.08086864110253
| 17>   H   -2.53246015126054      4.26425518348010      0.26339022485871
| 18>   H   -4.13522741445822      3.61501761485585      0.70987489337206
| 19>   H   -3.95929597111535      4.55776914577046     -0.74581257381012
| 20>   H   -1.04492271922950      2.81069337363515     -0.94130986380544
| 21>   H   -0.64990525991880      0.78125610569438     -2.29337483253764
| 22>   N   -5.16798266221965     -0.20568343492347     -2.47530842890976
| 23>   O   -4.88053178170897     -1.30232834055174     -2.92263320727126
| 24>   O   -6.28800829757179      0.23731758945018     -2.32361853193653
| 25>   H   -21.98350468507646     -0.98480530315545      8.39358640801999
| 26> *
| 27>
| 28>                          ****END OF INPUT****
 Total Charge           Charge          ....    1
 Multiplicity           Mult            ....    1
 Number of Electrons    NEL             ....   72
Dispersion correction           -0.026574985
FINAL SINGLE POINT ENERGY      -476.283222960723
Dispersion correction            ... Starting D4
Dispersion correction           -0.026574821
FINAL SINGLE POINT ENERGY      -476.283384765883
Dispersion correction            ... Starting D4
Dispersion correction           -0.026571973
FINAL SINGLE POINT ENERGY      -476.283482026455
Dispersion correction            ... Starting D4
FINAL SINGLE POINT ENERGY      -476.283492580862
FINAL SINGLE POINT ENERGY      -476.283498927126
FINAL SINGLE POINT ENERGY      -476.283504898459
FINAL SINGLE POINT ENERGY      -476.283511360495
FINAL SINGLE POINT ENERGY      -476.283518364313
FINAL SINGLE POINT ENERGY      -476.283526714677
FINAL SINGLE POINT ENERGY      -476.283539148498
FINAL SINGLE POINT ENERGY      -476.283582302639
FINAL SINGLE POINT ENERGY      -476.283609748468
FINAL SINGLE POINT ENERGY      -476.283632806382
FINAL SINGLE POINT ENERGY      -476.283654585629
FINAL SINGLE POINT ENERGY      -476.283681235132
FINAL SINGLE POINT ENERGY      -476.283716402091
FINAL SINGLE POINT ENERGY      -476.283720053205
Dispersion correction           -0.026568061
FINAL SINGLE POINT ENERGY      -476.283724536554
Dispersion correction            ... Starting D4
Dispersion correction           -0.026567824
FINAL SINGLE POINT ENERGY      -476.283729012418
Dispersion correction            ... Starting D4
                    ***********************HURRAY********************

CARTESIAN COORDINATES (ANGSTROEM)
---------------------------------
  C     -3.150878    2.621582   -0.935423
  C     -4.316700    1.858055   -1.222421
  C     -4.191137    0.677931   -1.902429
  C     -2.950899    0.195459   -2.336519
  C     -1.795946    0.948417   -2.060225
  C     -1.894754    2.135054   -1.370272
  C     -3.274813    3.908480   -0.215671
  H     -2.897835   -0.742107   -2.867337
  H     -5.288968    2.203596   -0.902277
  H     -2.298509    4.335519    0.013383
  H     -3.816777    3.792673    0.726423
  H     -3.826211    4.644113   -0.808264
  H     -1.007286    2.715476   -1.151368
  H     -0.834583    0.582176   -2.393957
  N     -5.399915   -0.136670   -2.165944
  O     -5.210454   -1.273990   -2.560869
  O     -6.477914    0.381738   -1.958852
  H    -21.123451   -1.269483    7.552060

 Multiplicity           Mult            ....    1
 Number of Electrons    NEL             ....   72
 Basis Dimension        Dim             ....  358

ORBITAL ENERGIES
----------------

  NO   OCC          E(Eh)            E(eV)
   0   2.0000     -19.193181      -522.2730
   1   2.0000     -19.191152      -522.2178
   2   2.0000     -14.585174      -396.8828
   3   2.0000     -10.268435      -279.4183
   4   2.0000     -10.241309      -278.6802
   5   2.0000     -10.231836      -278.4224
   6   2.0000     -10.231023      -278.4003
   7   2.0000     -10.228619      -278.3349
   8   2.0000     -10.227938      -278.3163
   9   2.0000     -10.212463      -277.8952
  10   2.0000      -1.269509       -34.5451
  11   2.0000      -1.097988       -29.8778
  12   2.0000      -0.922531       -25.1034
  13   2.0000      -0.846812       -23.0429
  14   2.0000      -0.819140       -22.2899
  15   2.0000      -0.744545       -20.2601
  16   2.0000      -0.730587       -19.8803
  17   2.0000      -0.653046       -17.7703
  18   2.0000      -0.620976       -16.8976
  19   2.0000      -0.590408       -16.0658
  20   2.0000      -0.574796       -15.6410
  21   2.0000      -0.553275       -15.0554
  22   2.0000      -0.543818       -14.7980
  23   2.0000      -0.516592       -14.0572
  24   2.0000      -0.493228       -13.4214
  25   2.0000      -0.471458       -12.8290
  26   2.0000      -0.464060       -12.6277
  27   2.0000      -0.436676       -11.8826
  28   2.0000      -0.416073       -11.3219
  29   2.0000      -0.412242       -11.2177
  30   2.0000      -0.400782       -10.9058
  31   2.0000      -0.353725        -9.6253
  32   2.0000      -0.345599        -9.4042
  33   2.0000      -0.335715        -9.1353
  34   2.0000      -0.317926        -8.6512
  35   2.0000      -0.295157        -8.0316
  36   0.0000      -0.498914       -13.5762
  37   0.0000      -0.122943        -3.3454
  38   0.0000      -0.069515        -1.8916
  39   0.0000      -0.036537        -0.9942
  40   0.0000       0.004332         0.1179

MULLIKEN ATOMIC CHARGES
-----------------------
   0 C :    0.195171
   1 C :   -0.247637
   2 C :    0.111433
   3 C :   -0.183816
   4 C :   -0.063902
   5 C :   -0.174960
   6 C :   -0.355708
   7 H :    0.156186
   8 H :    0.146164
   9 H :    0.116986
  10 H :    0.123834
  11 H :    0.129202
  12 H :    0.116682
  13 H :    0.124297
  14 N :    0.422927
  15 O :   -0.308345
  16 O :   -0.308516
  17 H :    1.000000
Sum of atomic charges:    1.0000000

LOEWDIN ATOMIC CHARGES
----------------------
   0 C :   -0.145797
   1 C :   -0.067987
   2 C :   -0.160907
   3 C :   -0.088100
   4 C :   -0.124569
   5 C :   -0.098088
   6 C :   -0.252839
   7 H :    0.154553
   8 H :    0.157461
   9 H :    0.128762
  10 H :    0.132157
  11 H :    0.134199
  12 H :    0.147965
  13 H :    0.148208
  14 N :   -0.032354
  15 O :   -0.016618
  16 O :   -0.016045
  17 H :    1.000000

  Mayer bond orders larger than 0.100000
B(  0-C ,  1-C ) :   1.3310 B(  0-C ,  5-C ) :   1.3813 B(  0-C ,  6-C ) :   0.9234
B(  1-C ,  2-C ) :   1.4485 B(  1-C ,  8-H ) :   0.9414 B(  2-C ,  3-C ) :   1.3920
B(  2-C , 14-N ) :   0.9594 B(  3-C ,  4-C ) :   1.3971 B(  3-C ,  7-H ) :   0.9323
B(  4-C ,  5-C ) :   1.4245 B(  4-C , 13-H ) :   0.9693 B(  5-C , 12-H ) :   0.9600
B(  6-C ,  9-H ) :   0.9901 B(  6-C , 10-H ) :   0.9695 B(  6-C , 11-H ) :   0.9589
B( 14-N , 15-O ) :   1.6095 B( 14-N , 16-O ) :   1.6147 B( 15-O , 16-O ) :   0.2091

Dispersion correction           -0.026567865
FINAL SINGLE POINT ENERGY      -476.283729802221

DIPOLE MOMENT
-------------
                                X             Y             Z
Electronic contribution:    -22.71289     -10.38967       5.47598
Nuclear contribution   :     -8.01422       7.13818      12.25735
                        -----------------------------------------
Total Dipole Moment    :    -30.72711      -3.25149      17.73332
                        -----------------------------------------
Magnitude (a.u.)       :     35.62581
Magnitude (Debye)      :     90.55360

Dispersion correction in the Hessian             ... Starting D4

VIBRATIONAL FREQUENCIES
-----------------------

Scaling factor for frequencies =  1.000000000  (already applied!)

   0:         0.00 cm**-1
   1:         0.00 cm**-1
   2:         0.00 cm**-1
   3:         0.00 cm**-1
   4:         0.00 cm**-1
   5:         0.00 cm**-1
   6:       -13.45 cm**-1 ***imaginary mode***
   7:        -6.91 cm**-1 ***imaginary mode***
   8:        22.08 cm**-1
   9:        37.05 cm**-1
  10:        44.71 cm**-1
  11:       171.89 cm**-1
  12:       204.89 cm**-1
  13:       212.71 cm**-1
  14:       357.06 cm**-1
  15:       391.20 cm**-1
  16:       429.43 cm**-1
  17:       500.93 cm**-1
  18:       529.39 cm**-1
  19:       565.21 cm**-1
  20:       683.10 cm**-1
  21:       696.60 cm**-1
  22:       750.20 cm**-1
  23:       815.90 cm**-1
  24:       823.35 cm**-1
  25:       907.64 cm**-1
  26:       917.15 cm**-1
  27:       949.45 cm**-1
  28:       984.93 cm**-1
  29:       999.85 cm**-1
  30:      1020.97 cm**-1
  31:      1072.64 cm**-1
  32:      1093.72 cm**-1
  33:      1116.13 cm**-1
  34:      1191.89 cm**-1
  35:      1258.72 cm**-1
  36:      1286.34 cm**-1
  37:      1324.08 cm**-1
  38:      1388.63 cm**-1
  39:      1433.78 cm**-1
  40:      1479.53 cm**-1
  41:      1488.49 cm**-1
  42:      1493.15 cm**-1
  43:      1517.32 cm**-1
  44:      1559.88 cm**-1
  45:      1622.56 cm**-1
  46:      1679.84 cm**-1
  47:      3025.38 cm**-1
  48:      3067.22 cm**-1
  49:      3104.84 cm**-1
  50:      3176.80 cm**-1
  51:      3198.18 cm**-1
  52:      3214.47 cm**-1
  53:      3235.48 cm**-1

IR SPECTRUM
-----------

 Mode   freq       eps      Int      T**2         TX        TY        TZ
       cm**-1   L/(mol*cm) km/mol    a.u.
----------------------------------------------------------------------------
  8:     22.08   0.055722  281.59  0.787594  (-0.540337 -0.000904 -0.704010)
  9:     37.05   0.030753  155.41  0.259039  (-0.254570  0.007103 -0.440662)
 10:     44.71   0.001314    6.64  0.009173  (-0.032179 -0.029604 -0.085214)
 11:    171.89   0.002075   10.49  0.003767  (-0.028609  0.030534 -0.044906)
 12:    204.89   0.000079    0.40  0.000121  (-0.001481  0.010156  0.003930)
 13:    212.71   0.000100    0.50  0.000146  (-0.007071  0.004693  0.008612)
 14:    357.06   0.000187    0.95  0.000164  ( 0.011887  0.004719  0.000124)
 15:    391.20   0.000150    0.76  0.000119  (-0.006857 -0.007806 -0.003366)
 16:    429.43   0.000148    0.75  0.000107  (-0.003513  0.007230 -0.006529)
 17:    500.93   0.000712    3.60  0.000444  (-0.001986 -0.001517  0.020917)
 18:    529.39   0.000489    2.47  0.000288  ( 0.002696 -0.013604  0.009781)
 19:    565.21   0.000129    0.65  0.000071  (-0.007772  0.001487 -0.002888)
 20:    683.10   0.000785    3.97  0.000359  ( 0.015601  0.010510  0.002229)
 21:    696.60   0.002666   13.47  0.001194  ( 0.004692 -0.017204  0.029604)
 22:    750.20   0.008253   41.71  0.003433  (-0.006057  0.025431 -0.052438)
 23:    815.90   0.006062   30.64  0.002319  ( 0.034391  0.032762  0.007917)
 24:    823.35   0.001856    9.38  0.000703  ( 0.001852 -0.015098  0.021724)
 25:    907.64   0.000715    3.61  0.000246  ( 0.007462 -0.001667  0.013687)
 26:    917.15   0.002918   14.74  0.000993  (-0.029936 -0.009718 -0.001463)
 27:    949.45   0.000831    4.20  0.000273  (-0.001887  0.007168 -0.014766)
 28:    984.93   0.000050    0.25  0.000016  (-0.002173 -0.002128  0.002538)
 29:    999.85   0.000546    2.76  0.000170  ( 0.001059 -0.011281 -0.006481)
 30:   1020.97   0.000208    1.05  0.000064  ( 0.002291  0.006186  0.004485)
 31:   1072.64   0.000628    3.17  0.000183  ( 0.003545 -0.009116  0.009329)
 32:   1093.72   0.002932   14.82  0.000837  (-0.015371 -0.022866 -0.008808)
 33:   1116.13   0.004985   25.19  0.001394  (-0.035235 -0.012138 -0.002207)
 34:   1191.89   0.000060    0.30  0.000016  ( 0.001847 -0.003101 -0.001599)
 35:   1258.72   0.000480    2.43  0.000119  (-0.000855  0.009773  0.004775)
 36:   1286.34   0.002462   12.44  0.000597  ( 0.024271 -0.000256 -0.002874)
 37:   1324.08   0.000902    4.56  0.000213  (-0.000134 -0.013062 -0.006476)
 38:   1388.63   0.055281  279.37  0.012423  (-0.086361 -0.066703 -0.022710)
 39:   1433.78   0.000527    2.66  0.000115  (-0.007247  0.007181  0.003257)
 40:   1479.53   0.001722    8.70  0.000363  ( 0.018480  0.000498 -0.004629)
 41:   1488.49   0.001538    7.77  0.000322  ( 0.005240 -0.009953  0.013994)
 42:   1493.15   0.001885    9.53  0.000394  (-0.000607 -0.015897 -0.011870)
 43:   1517.32   0.002852   14.41  0.000587  ( 0.017006  0.016059  0.006287)
 44:   1559.88   0.000927    4.68  0.000185  (-0.008497  0.009524  0.004742)
 45:   1622.56   0.054381  274.82  0.010459  (-0.062358  0.076298  0.027368)
 46:   1679.84   0.002049   10.36  0.000381  (-0.015129  0.012310 -0.000513)
 47:   3025.38   0.003956   19.99  0.000408  (-0.002844  0.017965  0.008790)
 48:   3067.22   0.002306   11.66  0.000235  ( 0.000440 -0.004611  0.014601)
 49:   3104.84   0.002726   13.78  0.000274  (-0.014739 -0.007085 -0.002557)
 50:   3176.80   0.001265    6.39  0.000124  (-0.004686 -0.009018 -0.004585)
 51:   3198.18   0.001504    7.60  0.000147  ( 0.011867 -0.001231 -0.002107)
 52:   3214.47   0.000360    1.82  0.000035  ( 0.005232  0.002508  0.001124)
 53:   3235.48   0.000512    2.59  0.000049  (-0.003217 -0.005834 -0.002243)

--------------------------
THERMOCHEMISTRY AT 298.15K
--------------------------

Temperature         ... 298.15 K
Pressure            ... 1.00 atm
Total Mass          ... 138.15 AMU

Throughout the following assumptions are being made:
  (1) The electronic state is orbitally nondegenerate
  (2) There are no thermally accessible electronically excited states
  (3) Hindered rotations indicated by low frequency modes are not
      treated as such but are treated as vibrations and this may
      cause some error
  (4) All equations used are the standard statistical mechanics
      equations for an ideal gas
  (5) All vibrations are strictly harmonic

freq.      22.08  E(vib)   ...       0.56
freq.      37.05  E(vib)   ...       0.54
freq.      44.71  E(vib)   ...       0.53
freq.     171.89  E(vib)   ...       0.38
freq.     204.89  E(vib)   ...       0.35
freq.     212.71  E(vib)   ...       0.34
freq.     357.06  E(vib)   ...       0.22
freq.     391.20  E(vib)   ...       0.20
freq.     429.43  E(vib)   ...       0.18
freq.     500.93  E(vib)   ...       0.14
freq.     529.39  E(vib)   ...       0.13
freq.     565.21  E(vib)   ...       0.11
freq.     683.10  E(vib)   ...       0.08
freq.     696.60  E(vib)   ...       0.07
freq.     750.20  E(vib)   ...       0.06
freq.     815.90  E(vib)   ...       0.05
freq.     823.35  E(vib)   ...       0.05
freq.     907.64  E(vib)   ...       0.03
freq.     917.15  E(vib)   ...       0.03
freq.     949.45  E(vib)   ...       0.03
freq.     984.93  E(vib)   ...       0.02
freq.     999.85  E(vib)   ...       0.02
freq.    1020.97  E(vib)   ...       0.02
freq.    1072.64  E(vib)   ...       0.02
freq.    1093.72  E(vib)   ...       0.02
freq.    1116.13  E(vib)   ...       0.01
freq.    1191.89  E(vib)   ...       0.01
freq.    1258.72  E(vib)   ...       0.01
freq.    1286.34  E(vib)   ...       0.01
freq.    1324.08  E(vib)   ...       0.01
freq.    1388.63  E(vib)   ...       0.00
freq.    1433.78  E(vib)   ...       0.00
freq.    1479.53  E(vib)   ...       0.00
freq.    1488.49  E(vib)   ...       0.00
freq.    1493.15  E(vib)   ...       0.00
freq.    1517.32  E(vib)   ...       0.00
freq.    1559.88  E(vib)   ...       0.00
freq.    1622.56  E(vib)   ...       0.00
freq.    1679.84  E(vib)   ...       0.00
freq.    3025.38  E(vib)   ...       0.00
freq.    3067.22  E(vib)   ...       0.00
freq.    3104.84  E(vib)   ...       0.00
freq.    3176.80  E(vib)   ...       0.00
freq.    3198.18  E(vib)   ...       0.00
freq.    3214.47  E(vib)   ...       0.00
freq.    3235.48  E(vib)   ...       0.00

------------
INNER ENERGY
------------

The inner energy is: U= E(el) + E(ZPE) + E(vib) + E(rot) + E(trans)
    E(el)   - is the total energy from the electronic structure calculation
              = E(kin-el) + E(nuc-el) + E(el-el) + E(nuc-nuc)
    E(ZPE)  - the the zero temperature vibrational energy from the frequency calculation
    E(vib)  - the the finite temperature correction to E(ZPE) due to population
              of excited vibrational states
    E(rot)  - is the rotational thermal energy
    E(trans)- is the translational thermal energy

Summary of contributions to the inner energy U:
Electronic energy                ...   -476.28372980 Eh
Zero point energy                ...      0.12995744 Eh      81.55 kcal/mol
Thermal vibrational correction   ...      0.00676790 Eh       4.25 kcal/mol
Thermal rotational correction    ...      0.00141627 Eh       0.89 kcal/mol
Thermal translational correction ...      0.00141627 Eh       0.89 kcal/mol
-----------------------------------------------------------------------
Total thermal energy                   -476.14417193 Eh

Summary of corrections to the electronic energy:
(perhaps to be used in another calculation)
Total thermal correction                  0.00960044 Eh       6.02 kcal/mol
Non-thermal (ZPE) correction              0.12995744 Eh      81.55 kcal/mol
-----------------------------------------------------------------------
Total correction                          0.13955788 Eh      87.57 kcal/mol

--------
ENTHALPY
--------

The enthalpy is H = U + kB*T
                kB is Boltzmann's constant
Total free energy                 ...   -476.14417193 Eh
Thermal Enthalpy correction       ...      0.00094421 Eh       0.59 kcal/mol
-----------------------------------------------------------------------
Total Enthalpy                    ...   -476.14322772 Eh

Note: Only C1 symmetry has been detected, increase convergence thresholds
      if your molecule has a higher symmetry. Symmetry factor of 1.0 is
      used for the rotational entropy correction.

Note: Rotational entropy computed according to Herzberg
Infrared and Raman Spectra, Chapter V,1, Van Nostrand Reinhold, 1945
Point Group:  C1, Symmetry Number:   1
Rotational constants in cm-1:     0.044959     0.022889     0.015879

Vibrational entropy computed according to the QRRHO of S. Grimme
Chem.Eur.J. 2012 18 9955

-------
ENTROPY
-------

The entropy contributions are T*S = T*(S(el)+S(vib)+S(rot)+S(trans))
     S(el)   - electronic entropy
     S(vib)  - vibrational entropy
     S(rot)  - rotational entropy
     S(trans)- translational entropy
The entropies will be listed as multiplied by the temperature to get
units of energy

Electronic entropy                ...      0.00000000 Eh      0.00 kcal/mol
Vibrational entropy               ...      0.01215265 Eh      7.63 kcal/mol
Rotational entropy                ...      0.01471413 Eh      9.23 kcal/mol
Translational entropy             ...      0.01932890 Eh     12.13 kcal/mol
-----------------------------------------------------------------------
Final entropy term                ...      0.04619567 Eh     28.99 kcal/mol

In case the symmetry of your molecule has not been determined correctly
or in case you have a reason to use a different symmetry number we print
out the resulting rotational entropy values for sn=1,12 :
 --------------------------------------------------------
|  sn= 1 | S(rot)=       0.01471413 Eh      9.23 kcal/mol|
|  sn= 2 | S(rot)=       0.01405967 Eh      8.82 kcal/mol|
|  sn= 3 | S(rot)=       0.01367684 Eh      8.58 kcal/mol|
|  sn= 4 | S(rot)=       0.01340522 Eh      8.41 kcal/mol|
|  sn= 5 | S(rot)=       0.01319453 Eh      8.28 kcal/mol|
|  sn= 6 | S(rot)=       0.01302239 Eh      8.17 kcal/mol|
|  sn= 7 | S(rot)=       0.01287684 Eh      8.08 kcal/mol|
|  sn= 8 | S(rot)=       0.01275076 Eh      8.00 kcal/mol|
|  sn= 9 | S(rot)=       0.01263955 Eh      7.93 kcal/mol|
|  sn=10 | S(rot)=       0.01254007 Eh      7.87 kcal/mol|
|  sn=11 | S(rot)=       0.01245008 Eh      7.81 kcal/mol|
|  sn=12 | S(rot)=       0.01236793 Eh      7.76 kcal/mol|
 --------------------------------------------------------

-------------------
GIBBS FREE ENERGY

                             ****ORCA TERMINATED NORMALLY****
TOTAL RUN TIME: 0 days 3 hours 20 minutes 23 seconds 632 msec
