                         Program Version 5.0.4 -  RELEASE  -
|  1> !B3LYP DEF2-SVP OPT FREQ D4 SOSCF
|  2>
|  3> * xyz 0 1
|  4>    C       -5.46491        2.00200        0.00000
|  5>    C       -6.53845        1.08763        0.00000
|  6>    C       -6.29865       -0.28995        0.00000
|  7>    C       -4.98903       -0.77388        0.00000
|  8>    C       -3.91538        0.11862        0.00000
|  9>    C       -4.14811        1.49742        0.00000
| 10>    H       -7.56304        1.43708       -0.00000
| 11>    H       -7.13001       -0.98311       -0.00000
| 12>    H       -4.80615       -1.84068        0.00000
| 13>    H       -2.90061       -0.25805        0.00000
| 14>    H       -3.29842        2.16818        0.00000
| 15>    N       -5.70642        3.41078        0.00000
| 16>    O       -6.82333        3.83392       -0.00000
| 17>    O       -4.79423        4.18177        0.00000
| 18> **                         ****END OF INPUT****
 Total Charge           Charge          ....    0
 Multiplicity           Mult            ....    1
 Number of Electrons    NEL             ....   64
Dispersion correction           -0.023182807
FINAL SINGLE POINT ENERGY      -436.208632191840
Dispersion correction            ... Starting D4
Dispersion correction           -0.023212353
FINAL SINGLE POINT ENERGY      -436.216915179971
Dispersion correction            ... Starting D4
Dispersion correction           -0.023209401
FINAL SINGLE POINT ENERGY      -436.217458980251
Dispersion correction            ... Starting D4
FINAL SINGLE POINT ENERGY      -436.217696444593
FINAL SINGLE POINT ENERGY      -436.217706740204
FINAL SINGLE POINT ENERGY      -436.217708507369
Dispersion correction           -0.023206874
FINAL SINGLE POINT ENERGY      -436.217704318135
Dispersion correction            ... Starting D4
Dispersion correction           -0.023206706
FINAL SINGLE POINT ENERGY      -436.217709385883
Dispersion correction            ... Starting D4
                    ***********************HURRAY********************

CARTESIAN COORDINATES (ANGSTROEM)
---------------------------------
  C     -5.457257    1.955933   -0.000018
  C     -6.548110    1.086286   -0.000013
  C     -6.303964   -0.287591   -0.000001
  C     -4.989846   -0.768595    0.000007
  C     -3.911142    0.122823   -0.000001
  C     -4.139151    1.499434   -0.000013
  H     -7.557404    1.496674   -0.000017
  H     -7.144043   -0.986018    0.000004
  H     -4.805099   -1.845676    0.000021
  H     -2.886428   -0.255844    0.000004
  H     -3.324497    2.222968   -0.000016
  N     -5.706570    3.413330   -0.000007
  O     -6.868224    3.786417    0.000027
  O     -4.735005    4.151588    0.000025

 Multiplicity           Mult            ....    1
 Number of Electrons    NEL             ....   64
 Basis Dimension        Dim             ....  151

ORBITAL ENERGIES
----------------

  NO   OCC          E(Eh)            E(eV)
   0   2.0000     -19.161498      -521.4109
   1   2.0000     -19.161460      -521.4098
   2   2.0000     -14.558590      -396.1594
   3   2.0000     -10.250711      -278.9360
   4   2.0000     -10.220501      -278.1140
   5   2.0000     -10.220460      -278.1129
   6   2.0000     -10.220066      -278.1021
   7   2.0000     -10.217596      -278.0349
   8   2.0000     -10.217557      -278.0339
   9   2.0000      -1.222342       -33.2616
  10   2.0000      -1.048458       -28.5300
  11   2.0000      -0.885711       -24.1014
  12   2.0000      -0.801879       -21.8202
  13   2.0000      -0.767860       -20.8945
  14   2.0000      -0.696351       -18.9487
  15   2.0000      -0.629778       -17.1371
  16   2.0000      -0.592011       -16.1094
  17   2.0000      -0.559186       -15.2162
  18   2.0000      -0.540666       -14.7123
  19   2.0000      -0.510367       -13.8878
  20   2.0000      -0.510216       -13.8837
  21   2.0000      -0.475999       -12.9526
  22   2.0000      -0.465536       -12.6679
  23   2.0000      -0.450498       -12.2587
  24   2.0000      -0.396172       -10.7804
  25   2.0000      -0.392822       -10.6892
  26   2.0000      -0.374683       -10.1956
  27   2.0000      -0.312785        -8.5113
  28   2.0000      -0.309676        -8.4267
  29   2.0000      -0.293951        -7.9988
  30   2.0000      -0.287573        -7.8253
  31   2.0000      -0.283145        -7.7048
  32   0.0000      -0.090305        -2.4573
  33   0.0000      -0.034941        -0.9508
  34   0.0000      -0.005053        -0.1375
  35   0.0000       0.047991         1.3059
  36   0.0000       0.088890         2.4188

MULLIKEN ATOMIC CHARGES
-----------------------
   0 C :    0.156065
   1 C :   -0.005436
   2 C :    0.013593
   3 C :    0.052550
   4 C :    0.014346
   5 C :   -0.006632
   6 H :    0.009687
   7 H :    0.000985
   8 H :    0.000055
   9 H :    0.000629
  10 H :    0.010217
  11 N :    0.231078
  12 O :   -0.238523
  13 O :   -0.238613
Sum of atomic charges:   -0.0000000

LOEWDIN ATOMIC CHARGES
----------------------
   0 C :   -0.022891
   1 C :   -0.000905
   2 C :   -0.015103
   3 C :   -0.000451
   4 C :   -0.015024
   5 C :   -0.000985
   6 H :    0.041511
   7 H :    0.034719
   8 H :    0.034173
   9 H :    0.034676
  10 H :    0.041554
  11 N :    0.275462
  12 O :   -0.203327
  13 O :   -0.203410

  Mayer bond orders larger than 0.100000
B(  0-C ,  1-C ) :   1.3866 B(  0-C ,  5-C ) :   1.3864 B(  0-C , 11-N ) :   0.8536
B(  1-C ,  2-C ) :   1.3544 B(  1-C ,  6-H ) :   0.9815 B(  2-C ,  3-C ) :   1.3782
B(  2-C ,  7-H ) :   0.9827 B(  3-C ,  4-C ) :   1.3784 B(  3-C ,  8-H ) :   0.9865
B(  4-C ,  5-C ) :   1.3544 B(  4-C ,  9-H ) :   0.9828 B(  5-C , 10-H ) :   0.9815
B( 11-N , 12-O ) :   1.5503 B( 11-N , 13-O ) :   1.5501 B( 12-O , 13-O ) :   0.2822

Dispersion correction           -0.023206812
FINAL SINGLE POINT ENERGY      -436.217709462218

DIPOLE MOMENT
-------------
                                X             Y             Z
Electronic contribution:     -1.02113       5.96000      -0.00002
Nuclear contribution   :      1.31383      -7.66954      -0.00001
                        -----------------------------------------
Total Dipole Moment    :      0.29270      -1.70954      -0.00003
                        -----------------------------------------
Magnitude (a.u.)       :      1.73442
Magnitude (Debye)      :      4.40854

Dispersion correction in the Hessian             ... Starting D4

VIBRATIONAL FREQUENCIES
-----------------------

Scaling factor for frequencies =  1.000000000  (already applied!)

   0:         0.00 cm**-1
   1:         0.00 cm**-1
   2:         0.00 cm**-1
   3:         0.00 cm**-1
   4:         0.00 cm**-1
   5:         0.00 cm**-1
   6:        52.98 cm**-1
   7:       171.15 cm**-1
   8:       261.01 cm**-1
   9:       401.30 cm**-1
  10:       423.75 cm**-1
  11:       454.83 cm**-1
  12:       533.80 cm**-1
  13:       624.97 cm**-1
  14:       701.79 cm**-1
  15:       706.32 cm**-1
  16:       721.95 cm**-1
  17:       811.58 cm**-1
  18:       864.70 cm**-1
  19:       881.85 cm**-1
  20:       973.23 cm**-1
  21:      1015.68 cm**-1
  22:      1018.33 cm**-1
  23:      1039.79 cm**-1
  24:      1041.20 cm**-1
  25:      1090.83 cm**-1
  26:      1126.87 cm**-1
  27:      1170.34 cm**-1
  28:      1183.15 cm**-1
  29:      1318.51 cm**-1
  30:      1385.49 cm**-1
  31:      1424.17 cm**-1
  32:      1488.55 cm**-1
  33:      1508.31 cm**-1
  34:      1646.46 cm**-1
  35:      1648.61 cm**-1
  36:      1699.79 cm**-1
  37:      3183.30 cm**-1
  38:      3194.84 cm**-1
  39:      3203.32 cm**-1
  40:      3234.20 cm**-1
  41:      3234.73 cm**-1

IR SPECTRUM
-----------

 Mode   freq       eps      Int      T**2         TX        TY        TZ
       cm**-1   L/(mol*cm) km/mol    a.u.
----------------------------------------------------------------------------
  6:     52.98   0.000000    0.00  0.000000  ( 0.000008  0.000004 -0.000045)
  7:    171.15   0.000209    1.06  0.000381  ( 0.000007  0.000007 -0.019518)
  8:    261.01   0.000220    1.11  0.000263  ( 0.015996  0.002728  0.000000)
  9:    401.30   0.000296    1.49  0.000230  (-0.002571  0.014948  0.000000)
 10:    423.75   0.000000    0.00  0.000000  ( 0.000006  0.000001  0.000010)
 11:    454.83   0.000030    0.15  0.000021  ( 0.000003  0.000004  0.004532)
 12:    533.80   0.000187    0.95  0.000109  ( 0.010308  0.001789 -0.000000)
 13:    624.97   0.000003    0.02  0.000001  ( 0.001213  0.000164  0.000000)
 14:    701.79   0.001861    9.40  0.000827  (-0.004850  0.028353  0.000000)
 15:    706.32   0.001685    8.51  0.000744  (-0.000001 -0.000001 -0.027281)
 16:    721.95   0.013235   66.88  0.005721  ( 0.000007  0.000000 -0.075635)
 17:    811.58   0.001127    5.70  0.000434  ( 0.000004  0.000003  0.020821)
 18:    864.70   0.000000    0.00  0.000000  (-0.000013 -0.000002  0.000000)
 19:    881.85   0.007987   40.36  0.002826  (-0.008981  0.052400  0.000001)
 20:    973.23   0.000399    2.02  0.000128  ( 0.000001 -0.000000  0.011310)
 21:   1015.68   0.000000    0.00  0.000000  ( 0.000012  0.000002  0.000048)
 22:   1018.33   0.000051    0.26  0.000016  (-0.000676  0.003903 -0.000000)
 23:   1039.79   0.000005    0.03  0.000002  (-0.000001  0.000003  0.001225)
 24:   1041.20   0.001430    7.23  0.000429  (-0.003489  0.020406 -0.000000)
 25:   1090.83   0.001967    9.94  0.000563  (-0.023383 -0.003981 -0.000000)
 26:   1126.87   0.007094   35.85  0.001964  ( 0.007507 -0.043682 -0.000000)
 27:   1170.34   0.000043    0.22  0.000012  (-0.003350 -0.000586  0.000000)
 28:   1183.15   0.000002    0.01  0.000000  ( 0.000103 -0.000653 -0.000000)
 29:   1318.51   0.000115    0.58  0.000027  (-0.005156 -0.000862 -0.000000)
 30:   1385.49   0.002224   11.24  0.000501  ( 0.022059  0.003788 -0.000000)
 31:   1424.17   0.052589  265.76  0.011523  ( 0.017957 -0.105834 -0.000001)
 32:   1488.55   0.000445    2.25  0.000093  ( 0.009510  0.001695  0.000000)
 33:   1508.31   0.002539   12.83  0.000525  ( 0.003868 -0.022593  0.000000)
 34:   1646.46   0.016123   81.48  0.003056  ( 0.054619  0.008517 -0.000000)
 35:   1648.61   0.000623    3.15  0.000118  ( 0.001960  0.010679 -0.000000)
 36:   1699.79   0.028812  145.61  0.005290  (-0.071718 -0.012091  0.000000)
 37:   3183.30   0.000084    0.42  0.000008  (-0.000654  0.002791 -0.000000)
 38:   3194.84   0.001541    7.79  0.000150  ( 0.012042  0.002342 -0.000000)
 39:   3203.32   0.001323    6.69  0.000129  ( 0.002104 -0.011156  0.000000)
 40:   3234.20   0.000509    2.57  0.000049  ( 0.004452  0.005414  0.000000)
 41:   3234.73   0.000723    3.65  0.000070  (-0.004484  0.007043  0.000000)

--------------------------
THERMOCHEMISTRY AT 298.15K
--------------------------

Temperature         ... 298.15 K
Pressure            ... 1.00 atm
Total Mass          ... 123.11 AMU

Throughout the following assumptions are being made:
  (1) The electronic state is orbitally nondegenerate
  (2) There are no thermally accessible electronically excited states
  (3) Hindered rotations indicated by low frequency modes are not
      treated as such but are treated as vibrations and this may
      cause some error
  (4) All equations used are the standard statistical mechanics
      equations for an ideal gas
  (5) All vibrations are strictly harmonic

freq.      52.98  E(vib)   ...       0.52
freq.     171.15  E(vib)   ...       0.38
freq.     261.01  E(vib)   ...       0.30
freq.     401.30  E(vib)   ...       0.19
freq.     423.75  E(vib)   ...       0.18
freq.     454.83  E(vib)   ...       0.16
freq.     533.80  E(vib)   ...       0.13
freq.     624.97  E(vib)   ...       0.09
freq.     701.79  E(vib)   ...       0.07
freq.     706.32  E(vib)   ...       0.07
freq.     721.95  E(vib)   ...       0.07
freq.     811.58  E(vib)   ...       0.05
freq.     864.70  E(vib)   ...       0.04
freq.     881.85  E(vib)   ...       0.04
freq.     973.23  E(vib)   ...       0.03
freq.    1015.68  E(vib)   ...       0.02
freq.    1018.33  E(vib)   ...       0.02
freq.    1039.79  E(vib)   ...       0.02
freq.    1041.20  E(vib)   ...       0.02
freq.    1090.83  E(vib)   ...       0.02
freq.    1126.87  E(vib)   ...       0.01
freq.    1170.34  E(vib)   ...       0.01
freq.    1183.15  E(vib)   ...       0.01
freq.    1318.51  E(vib)   ...       0.01
freq.    1385.49  E(vib)   ...       0.00
freq.    1424.17  E(vib)   ...       0.00
freq.    1488.55  E(vib)   ...       0.00
freq.    1508.31  E(vib)   ...       0.00
freq.    1646.46  E(vib)   ...       0.00
freq.    1648.61  E(vib)   ...       0.00
freq.    1699.79  E(vib)   ...       0.00
freq.    3183.30  E(vib)   ...       0.00
freq.    3194.84  E(vib)   ...       0.00
freq.    3203.32  E(vib)   ...       0.00
freq.    3234.20  E(vib)   ...       0.00
freq.    3234.73  E(vib)   ...       0.00

------------
INNER ENERGY
------------

The inner energy is: U= E(el) + E(ZPE) + E(vib) + E(rot) + E(trans)
    E(el)   - is the total energy from the electronic structure calculation
              = E(kin-el) + E(nuc-el) + E(el-el) + E(nuc-nuc)
    E(ZPE)  - the the zero temperature vibrational energy from the frequency calculation
    E(vib)  - the the finite temperature correction to E(ZPE) due to population
              of excited vibrational states
    E(rot)  - is the rotational thermal energy
    E(trans)- is the translational thermal energy

Summary of contributions to the inner energy U:
Electronic energy                ...   -436.21770946 Eh
Zero point energy                ...      0.10352381 Eh      64.96 kcal/mol
Thermal vibrational correction   ...      0.00393024 Eh       2.47 kcal/mol
Thermal rotational correction    ...      0.00141627 Eh       0.89 kcal/mol
Thermal translational correction ...      0.00141627 Eh       0.89 kcal/mol
-----------------------------------------------------------------------
Total thermal energy                   -436.10742287 Eh

Summary of corrections to the electronic energy:
(perhaps to be used in another calculation)
Total thermal correction                  0.00676278 Eh       4.24 kcal/mol
Non-thermal (ZPE) correction              0.10352381 Eh      64.96 kcal/mol
-----------------------------------------------------------------------
Total correction                          0.11028660 Eh      69.21 kcal/mol

--------
ENTHALPY
--------

The enthalpy is H = U + kB*T
                kB is Boltzmann's constant
Total free energy                 ...   -436.10742287 Eh
Thermal Enthalpy correction       ...      0.00094421 Eh       0.59 kcal/mol
-----------------------------------------------------------------------
Total Enthalpy                    ...   -436.10647866 Eh

Note: Rotational entropy computed according to Herzberg
Infrared and Raman Spectra, Chapter V,1, Van Nostrand Reinhold, 1945
Point Group:  Cs, Symmetry Number:   1
Rotational constants in cm-1:     0.132276     0.042761     0.032315

Vibrational entropy computed according to the QRRHO of S. Grimme
Chem.Eur.J. 2012 18 9955

-------
ENTROPY
-------

The entropy contributions are T*S = T*(S(el)+S(vib)+S(rot)+S(trans))
     S(el)   - electronic entropy
     S(vib)  - vibrational entropy
     S(rot)  - rotational entropy
     S(trans)- translational entropy
The entropies will be listed as multiplied by the temperature to get
units of energy

Electronic entropy                ...      0.00000000 Eh      0.00 kcal/mol
Vibrational entropy               ...      0.00636930 Eh      4.00 kcal/mol
Rotational entropy                ...      0.01357419 Eh      8.52 kcal/mol
Translational entropy             ...      0.01916571 Eh     12.03 kcal/mol
-----------------------------------------------------------------------
Final entropy term                ...      0.03910920 Eh     24.54 kcal/mol

In case the symmetry of your molecule has not been determined correctly
or in case you have a reason to use a different symmetry number we print
out the resulting rotational entropy values for sn=1,12 :
 --------------------------------------------------------
|  sn= 1 | S(rot)=       0.01357419 Eh      8.52 kcal/mol|
|  sn= 2 | S(rot)=       0.01291974 Eh      8.11 kcal/mol|
|  sn= 3 | S(rot)=       0.01253690 Eh      7.87 kcal/mol|
|  sn= 4 | S(rot)=       0.01226528 Eh      7.70 kcal/mol|
|  sn= 5 | S(rot)=       0.01205459 Eh      7.56 kcal/mol|
|  sn= 6 | S(rot)=       0.01188245 Eh      7.46 kcal/mol|
|  sn= 7 | S(rot)=       0.01173690 Eh      7.37 kcal/mol|
|  sn= 8 | S(rot)=       0.01161082 Eh      7.29 kcal/mol|
|  sn= 9 | S(rot)=       0.01149962 Eh      7.22 kcal/mol|
|  sn=10 | S(rot)=       0.01140014 Eh      7.15 kcal/mol|
|  sn=11 | S(rot)=       0.01131015 Eh      7.10 kcal/mol|
|  sn=12 | S(rot)=       0.01122799 Eh      7.05 kcal/mol|
 --------------------------------------------------------

-------------------
GIBBS FREE ENERGY
-------------------

The Gibbs free energy is G = H - T*S

Total enthalpy                    ...   -436.10647866 Eh
Total entropy correction          ...     -0.03910920 Eh    -24.54 kcal/mol
-----------------------------------------------------------------------
Final Gibbs free energy         ...   -436.14558786 Eh

For completeness - the Gibbs free energy minus the electronic energy
G-E(el)                           ...      0.07212160 Eh     45.26 kcal/mol

                             ****ORCA TERMINATED NORMALLY****
TOTAL RUN TIME: 0 days 0 hours 38 minutes 34 seconds 689 msec
