                         Program Version 5.0.4 -  RELEASE  -
|  1> !B3LYP DEF2-TZVP OPT FREQ D4
|  2>
|  3> * xyz 1 1
|  4>    C       -6.44150        0.36344       -0.12321
|  5>    C       -7.24091        1.04273       -1.09289
|  6>    C       -7.26131        0.62801       -2.39474
|  7>    C       -6.53476       -0.58640       -2.80355
|  8>    C       -5.63919       -1.19862       -1.80473
|  9>    C       -5.64559       -0.76234       -0.51357
| 10>    C       -6.30136        0.89765        1.25467
| 11>    H       -5.32273        2.41780        0.86814
| 12>    H       -5.18010       -0.24284        2.19356
| 13>    H       -7.79050        1.11938        1.71696
| 14>    H       -7.82763        1.91066       -0.78446
| 15>    H       -7.83746        1.15641       -3.16000
| 16>    H       -5.00772       -2.03016       -2.12940
| 17>    H       -5.02350       -1.25832        0.23781
| 18>    N       -5.84742       -0.42123       -4.22846
| 19>    O       -4.89288       -1.12492       -4.42503
| 20>    O       -6.38776        0.35693       -4.96893
| 21>    H       -7.30975       -1.35099       -3.05493
| 22> **                         ****END OF INPUT****
 Total Charge           Charge          ....    1
 Multiplicity           Mult            ....    1
 Number of Electrons    NEL             ....   72
Dispersion correction           -0.029062988
FINAL SINGLE POINT ENERGY      -476.010371750815
Dispersion correction            ... Starting D4
Dispersion correction           -0.029171478
FINAL SINGLE POINT ENERGY      -476.055366317961
Dispersion correction            ... Starting D4
Dispersion correction           -0.028624145
FINAL SINGLE POINT ENERGY      -476.100620924579
Dispersion correction            ... Starting D4
FINAL SINGLE POINT ENERGY      -476.142890729580
FINAL SINGLE POINT ENERGY      -476.185804242148
FINAL SINGLE POINT ENERGY      -476.224980173521
FINAL SINGLE POINT ENERGY      -476.253162873062
FINAL SINGLE POINT ENERGY      -476.278186853522
FINAL SINGLE POINT ENERGY      -476.295793651574
FINAL SINGLE POINT ENERGY      -476.292319873430
FINAL SINGLE POINT ENERGY      -476.297269698358
FINAL SINGLE POINT ENERGY      -476.298584289211
FINAL SINGLE POINT ENERGY      -476.299697911568
FINAL SINGLE POINT ENERGY      -476.299791547764
FINAL SINGLE POINT ENERGY      -476.299855288581
Dispersion correction           -0.027162515
FINAL SINGLE POINT ENERGY      -476.299872311125
Dispersion correction            ... Starting D4
Dispersion correction           -0.027160338
FINAL SINGLE POINT ENERGY      -476.299876569365
Dispersion correction            ... Starting D4
                    ***********************HURRAY********************

CARTESIAN COORDINATES (ANGSTROEM)
---------------------------------
  C     -6.340680    0.388060   -0.140759
  C     -7.165409    1.059527   -1.086978
  C     -7.237990    0.633488   -2.369860
  C     -6.540366   -0.590207   -2.788205
  C     -5.633923   -1.205312   -1.810456
  C     -5.588337   -0.751246   -0.533806
  C     -6.241908    0.914418    1.235712
  H     -5.812356    1.924456    1.206631
  H     -5.635695    0.290221    1.887627
  H     -7.242916    1.038138    1.663558
  H     -7.709971    1.941216   -0.774261
  H     -7.823994    1.158305   -3.113022
  H     -5.030236   -2.041369   -2.139013
  H     -4.947438   -1.234305    0.191823
  N     -5.876062   -0.445361   -4.226097
  O     -4.958935   -1.189362   -4.450330
  O     -6.385562    0.368914   -4.948625
  H     -7.320293   -1.342392   -3.016699

 Multiplicity           Mult            ....    1
 Number of Electrons    NEL             ....   72
 Basis Dimension        Dim             ....  358

ORBITAL ENERGIES
----------------

  NO   OCC          E(Eh)            E(eV)
   0   2.0000     -19.340153      -526.2723
   1   2.0000     -19.340114      -526.2713
   2   2.0000     -14.731948      -400.8767
   3   2.0000     -10.440616      -284.1036
   4   2.0000     -10.438706      -284.0516
   5   2.0000     -10.415690      -283.4253
   6   2.0000     -10.413461      -283.3647
   7   2.0000     -10.388327      -282.6807
   8   2.0000     -10.387864      -282.6681
   9   2.0000     -10.353731      -281.7393
  10   2.0000      -1.418153       -38.5899
  11   2.0000      -1.252230       -34.0749
  12   2.0000      -1.089788       -29.6546
  13   2.0000      -1.011501       -27.5243
  14   2.0000      -0.975835       -26.5538
  15   2.0000      -0.923337       -25.1253
  16   2.0000      -0.840245       -22.8642
  17   2.0000      -0.823465       -22.4076
  18   2.0000      -0.790991       -21.5240
  19   2.0000      -0.742103       -20.1936
  20   2.0000      -0.732941       -19.9443
  21   2.0000      -0.697002       -18.9664
  22   2.0000      -0.688320       -18.7301
  23   2.0000      -0.678049       -18.4506
  24   2.0000      -0.669532       -18.2189
  25   2.0000      -0.642813       -17.4918
  26   2.0000      -0.625088       -17.0095
  27   2.0000      -0.610942       -16.6246
  28   2.0000      -0.580581       -15.7984
  29   2.0000      -0.574993       -15.6464
  30   2.0000      -0.549971       -14.9655
  31   2.0000      -0.529856       -14.4181
  32   2.0000      -0.497115       -13.5272
  33   2.0000      -0.487443       -13.2640
  34   2.0000      -0.476542       -12.9674
  35   2.0000      -0.472493       -12.8572
  36   0.0000      -0.324571        -8.8320
  37   0.0000      -0.234231        -6.3738
  38   0.0000      -0.218985        -5.9589
  39   0.0000      -0.143177        -3.8960
  40   0.0000      -0.125265        -3.4086

MULLIKEN ATOMIC CHARGES
-----------------------
   0 C :    0.226713
   1 C :   -0.110973
   2 C :   -0.121431
   3 C :    0.074699
   4 C :   -0.119153
   5 C :   -0.120676
   6 C :   -0.348210
   7 H :    0.188684
   8 H :    0.161999
   9 H :    0.182503
  10 H :    0.184382
  11 H :    0.215056
  12 H :    0.215163
  13 H :    0.179316
  14 N :    0.428478
  15 O :   -0.223708
  16 O :   -0.222900
  17 H :    0.210058
Sum of atomic charges:    1.0000000

LOEWDIN ATOMIC CHARGES
----------------------
   0 C :   -0.020471
   1 C :   -0.060014
   2 C :    0.001796
   3 C :   -0.170257
   4 C :    0.008426
   5 C :   -0.060499
   6 C :   -0.198017
   7 H :    0.171692
   8 H :    0.146040
   9 H :    0.166269
  10 H :    0.173866
  11 H :    0.176716
  12 H :    0.177078
  13 H :    0.172884
  14 N :   -0.040438
  15 O :    0.061747
  16 O :    0.062268
  17 H :    0.230914

  Mayer bond orders larger than 0.100000
B(  0-C ,  1-C ) :   1.1985 B(  0-C ,  5-C ) :   1.2346 B(  0-C ,  6-C ) :   0.9801
B(  1-C ,  2-C ) :   1.5907 B(  1-C , 10-H ) :   0.9483 B(  2-C ,  3-C ) :   1.0754
B(  2-C , 11-H ) :   0.9249 B(  3-C ,  4-C ) :   1.0785 B(  3-C , 14-N ) :   0.8170
B(  3-C , 17-H ) :   0.8359 B(  4-C ,  5-C ) :   1.5822 B(  4-C , 12-H ) :   0.9239
B(  5-C , 13-H ) :   0.9423 B(  6-C ,  7-H ) :   0.9151 B(  6-C ,  8-H ) :   0.9766
B(  6-C ,  9-H ) :   0.9294 B( 14-N , 15-O ) :   1.6554 B( 14-N , 16-O ) :   1.6553
B( 15-O , 16-O ) :   0.2344

Dispersion correction           -0.027159024
FINAL SINGLE POINT ENERGY      -476.299880845491

DIPOLE MOMENT
-------------
                                X             Y             Z
Electronic contribution:      1.17227      -2.10334      -9.85953
Nuclear contribution   :     -1.96609       2.27984      12.57498
                        -----------------------------------------
Total Dipole Moment    :     -0.79382       0.17650       2.71545
                        -----------------------------------------
Magnitude (a.u.)       :      2.83460
Magnitude (Debye)      :      7.20498

Dispersion correction in the Hessian             ... Starting D4

VIBRATIONAL FREQUENCIES
-----------------------

Scaling factor for frequencies =  1.000000000  (already applied!)

   0:         0.00 cm**-1
   1:         0.00 cm**-1
   2:         0.00 cm**-1
   3:         0.00 cm**-1
   4:         0.00 cm**-1
   5:         0.00 cm**-1
   6:        -1.24 cm**-1 ***imaginary mode***
   7:        29.73 cm**-1
   8:        66.93 cm**-1
   9:       202.61 cm**-1
  10:       206.76 cm**-1
  11:       317.03 cm**-1
  12:       344.10 cm**-1
  13:       362.45 cm**-1
  14:       481.81 cm**-1
  15:       489.16 cm**-1
  16:       565.17 cm**-1
  17:       606.01 cm**-1
  18:       631.10 cm**-1
  19:       734.22 cm**-1
  20:       779.40 cm**-1
  21:       800.43 cm**-1
  22:       833.48 cm**-1
  23:       874.37 cm**-1
  24:       901.22 cm**-1
  25:       990.84 cm**-1
  26:      1003.53 cm**-1
  27:      1020.76 cm**-1
  28:      1038.52 cm**-1
  29:      1050.04 cm**-1
  30:      1091.97 cm**-1
  31:      1114.72 cm**-1
  32:      1158.56 cm**-1
  33:      1215.83 cm**-1
  34:      1255.56 cm**-1
  35:      1324.20 cm**-1
  36:      1360.58 cm**-1
  37:      1368.26 cm**-1
  38:      1391.47 cm**-1
  39:      1447.37 cm**-1
  40:      1466.25 cm**-1
  41:      1483.71 cm**-1
  42:      1500.48 cm**-1
  43:      1548.06 cm**-1
  44:      1656.62 cm**-1
  45:      1693.62 cm**-1
  46:      2933.79 cm**-1
  47:      3006.55 cm**-1
  48:      3049.74 cm**-1
  49:      3146.64 cm**-1
  50:      3193.57 cm**-1
  51:      3198.19 cm**-1
  52:      3211.14 cm**-1
  53:      3212.82 cm**-1

IR SPECTRUM
-----------

 Mode   freq       eps      Int      T**2         TX        TY        TZ
       cm**-1   L/(mol*cm) km/mol    a.u.
----------------------------------------------------------------------------
  7:     29.73   0.000001    0.00  0.000009  (-0.002753  0.000026  0.001098)
  8:     66.93   0.000774    3.91  0.003609  ( 0.022229  0.030987  0.046413)
  9:    202.61   0.000573    2.90  0.000883  (-0.016391  0.024330 -0.004736)
 10:    206.76   0.000382    1.93  0.000576  (-0.014137 -0.012555 -0.014785)
 11:    317.03   0.002171   10.97  0.002137  (-0.006506  0.008777  0.044918)
 12:    344.10   0.000054    0.27  0.000049  ( 0.001617 -0.005814  0.003544)
 13:    362.45   0.000011    0.06  0.000010  ( 0.001481 -0.001768  0.002060)
 14:    481.81   0.000163    0.82  0.000105  ( 0.009850 -0.002688 -0.001100)
 15:    489.16   0.000644    3.25  0.000411  (-0.013296 -0.012858  0.008277)
 16:    565.17   0.001264    6.39  0.000698  (-0.016623 -0.009585  0.018161)
 17:    606.01   0.001119    5.65  0.000576  (-0.015396  0.018020 -0.003796)
 18:    631.10   0.005514   27.87  0.002727  ( 0.034405  0.020138 -0.033726)
 19:    734.22   0.004658   23.54  0.001980  (-0.031665 -0.021338  0.022847)
 20:    779.40   0.005327   26.92  0.002133  ( 0.007790 -0.005817 -0.045150)
 21:    800.43   0.000203    1.03  0.000079  (-0.006362  0.002628 -0.005642)
 22:    833.48   0.037534  189.68  0.014053  ( 0.037029 -0.003580 -0.112557)
 23:    874.37   0.003203   16.19  0.001143  (-0.019875 -0.021650 -0.016714)
 24:    901.22   0.022228  112.33  0.007697  ( 0.014836 -0.012857 -0.085507)
 25:    990.84   0.004082   20.63  0.001286  (-0.008553 -0.003885 -0.034605)
 26:   1003.53   0.000500    2.53  0.000156  ( 0.005778 -0.011056 -0.000063)
 27:   1020.76   0.000637    3.22  0.000195  ( 0.005256  0.008395  0.009831)
 28:   1038.52   0.003695   18.67  0.001110  (-0.025118 -0.016740  0.014112)
 29:   1050.04   0.002551   12.89  0.000758  (-0.003600 -0.012468 -0.024282)
 30:   1091.97   0.001809    9.14  0.000517  (-0.013075  0.017238  0.006991)
 31:   1114.72   0.019650   99.30  0.005501  (-0.021063  0.002656  0.071065)
 32:   1158.56   0.001148    5.80  0.000309  (-0.006800  0.012634  0.010162)
 33:   1215.83   0.012287   62.09  0.003154  ( 0.000519 -0.021783 -0.051757)
 34:   1255.56   0.004215   21.30  0.001048  (-0.004166  0.011181  0.030089)
 35:   1324.20   0.004070   20.57  0.000959  ( 0.017573 -0.024931 -0.005361)
 36:   1360.58   0.027747  140.22  0.006364  ( 0.019809 -0.036003 -0.068377)
 37:   1368.26   0.033012  166.83  0.007529  ( 0.024348  0.006523 -0.083029)
 38:   1391.47   0.002383   12.04  0.000535  ( 0.006459  0.007472  0.020904)
 39:   1447.37   0.002989   15.10  0.000644  ( 0.025263  0.002360 -0.000791)
 40:   1466.25   0.004624   23.37  0.000984  ( 0.010504 -0.029493  0.001979)
 41:   1483.71   0.015782   79.75  0.003319  (-0.002449 -0.010249 -0.056641)
 42:   1500.48   0.004165   21.05  0.000866  (-0.019540  0.021862  0.002537)
 43:   1548.06   0.009646   48.75  0.001945  (-0.027576  0.034009 -0.005246)
 44:   1656.62   0.043658  220.63  0.008224  (-0.006481 -0.030381 -0.085200)
 45:   1693.62   0.060714  306.83  0.011187  (-0.069515  0.075954 -0.024202)
 46:   2933.79   0.010832   54.74  0.001152  ( 0.020502  0.022490  0.015036)
 47:   3006.55   0.011274   56.98  0.001170  ( 0.001770  0.015098  0.030645)
 48:   3049.74   0.000758    3.83  0.000078  (-0.006307 -0.002560  0.005592)
 49:   3146.64   0.001755    8.87  0.000174  ( 0.001135  0.003266  0.012732)
 50:   3193.57   0.000343    1.73  0.000034  (-0.000086  0.002021  0.005423)
 51:   3198.19   0.000586    2.96  0.000057  ( 0.001245 -0.003524 -0.006575)
 52:   3211.14   0.004659   23.55  0.000453  (-0.013583  0.015473 -0.005374)
 53:   3212.82   0.001501    7.59  0.000146  (-0.001331  0.002666  0.011702)

--------------------------
THERMOCHEMISTRY AT 298.15K
--------------------------

Temperature         ... 298.15 K
Pressure            ... 1.00 atm
Total Mass          ... 138.15 AMU

Throughout the following assumptions are being made:
  (1) The electronic state is orbitally nondegenerate
  (2) There are no thermally accessible electronically excited states
  (3) Hindered rotations indicated by low frequency modes are not
      treated as such but are treated as vibrations and this may
      cause some error
  (4) All equations used are the standard statistical mechanics
      equations for an ideal gas
  (5) All vibrations are strictly harmonic

freq.      29.73  E(vib)   ...       0.55
freq.      66.93  E(vib)   ...       0.50
freq.     202.61  E(vib)   ...       0.35
freq.     206.76  E(vib)   ...       0.35
freq.     317.03  E(vib)   ...       0.25
freq.     344.10  E(vib)   ...       0.23
freq.     362.45  E(vib)   ...       0.22
freq.     481.81  E(vib)   ...       0.15
freq.     489.16  E(vib)   ...       0.15
freq.     565.17  E(vib)   ...       0.11
freq.     606.01  E(vib)   ...       0.10
freq.     631.10  E(vib)   ...       0.09
freq.     734.22  E(vib)   ...       0.06
freq.     779.40  E(vib)   ...       0.05
freq.     800.43  E(vib)   ...       0.05
freq.     833.48  E(vib)   ...       0.04
freq.     874.37  E(vib)   ...       0.04
freq.     901.22  E(vib)   ...       0.03
freq.     990.84  E(vib)   ...       0.02
freq.    1003.53  E(vib)   ...       0.02
freq.    1020.76  E(vib)   ...       0.02
freq.    1038.52  E(vib)   ...       0.02
freq.    1050.04  E(vib)   ...       0.02
freq.    1091.97  E(vib)   ...       0.02
freq.    1114.72  E(vib)   ...       0.01
freq.    1158.56  E(vib)   ...       0.01
freq.    1215.83  E(vib)   ...       0.01
freq.    1255.56  E(vib)   ...       0.01
freq.    1324.20  E(vib)   ...       0.01
freq.    1360.58  E(vib)   ...       0.01
freq.    1368.26  E(vib)   ...       0.01
freq.    1391.47  E(vib)   ...       0.00
freq.    1447.37  E(vib)   ...       0.00
freq.    1466.25  E(vib)   ...       0.00
freq.    1483.71  E(vib)   ...       0.00
freq.    1500.48  E(vib)   ...       0.00
freq.    1548.06  E(vib)   ...       0.00
freq.    1656.62  E(vib)   ...       0.00
freq.    1693.62  E(vib)   ...       0.00
freq.    2933.79  E(vib)   ...       0.00
freq.    3006.55  E(vib)   ...       0.00
freq.    3049.74  E(vib)   ...       0.00
freq.    3146.64  E(vib)   ...       0.00
freq.    3193.57  E(vib)   ...       0.00
freq.    3198.19  E(vib)   ...       0.00
freq.    3211.14  E(vib)   ...       0.00
freq.    3212.82  E(vib)   ...       0.00

------------
INNER ENERGY
------------

The inner energy is: U= E(el) + E(ZPE) + E(vib) + E(rot) + E(trans)
    E(el)   - is the total energy from the electronic structure calculation
              = E(kin-el) + E(nuc-el) + E(el-el) + E(nuc-nuc)
    E(ZPE)  - the the zero temperature vibrational energy from the frequency calculation
    E(vib)  - the the finite temperature correction to E(ZPE) due to population
              of excited vibrational states
    E(rot)  - is the rotational thermal energy
    E(trans)- is the translational thermal energy

Summary of contributions to the inner energy U:
Electronic energy                ...   -476.29988085 Eh
Zero point energy                ...      0.13978695 Eh      87.72 kcal/mol
Thermal vibrational correction   ...      0.00563015 Eh       3.53 kcal/mol
Thermal rotational correction    ...      0.00141627 Eh       0.89 kcal/mol
Thermal translational correction ...      0.00141627 Eh       0.89 kcal/mol
-----------------------------------------------------------------------
Total thermal energy                   -476.15163120 Eh

Summary of corrections to the electronic energy:
(perhaps to be used in another calculation)
Total thermal correction                  0.00846269 Eh       5.31 kcal/mol
Non-thermal (ZPE) correction              0.13978695 Eh      87.72 kcal/mol
-----------------------------------------------------------------------
Total correction                          0.14824964 Eh      93.03 kcal/mol

--------
ENTHALPY
--------

The enthalpy is H = U + kB*T
                kB is Boltzmann's constant
Total free energy                 ...   -476.15163120 Eh
Thermal Enthalpy correction       ...      0.00094421 Eh       0.59 kcal/mol
-----------------------------------------------------------------------
Total Enthalpy                    ...   -476.15068699 Eh

Note: Only C1 symmetry has been detected, increase convergence thresholds
      if your molecule has a higher symmetry. Symmetry factor of 1.0 is
      used for the rotational entropy correction.

Note: Rotational entropy computed according to Herzberg
Infrared and Raman Spectra, Chapter V,1, Van Nostrand Reinhold, 1945
Point Group:  C1, Symmetry Number:   1
Rotational constants in cm-1:     0.112633     0.028034     0.023530

Vibrational entropy computed according to the QRRHO of S. Grimme
Chem.Eur.J. 2012 18 9955

-------
ENTROPY
-------

The entropy contributions are T*S = T*(S(el)+S(vib)+S(rot)+S(trans))
     S(el)   - electronic entropy
     S(vib)  - vibrational entropy
     S(rot)  - rotational entropy
     S(trans)- translational entropy
The entropies will be listed as multiplied by the temperature to get
units of energy

Electronic entropy                ...      0.00000000 Eh      0.00 kcal/mol
Vibrational entropy               ...      0.00953953 Eh      5.99 kcal/mol
Rotational entropy                ...      0.01399918 Eh      8.78 kcal/mol
Translational entropy             ...      0.01932890 Eh     12.13 kcal/mol
-----------------------------------------------------------------------
Final entropy term                ...      0.04286761 Eh     26.90 kcal/mol

In case the symmetry of your molecule has not been determined correctly
or in case you have a reason to use a different symmetry number we print
out the resulting rotational entropy values for sn=1,12 :
 --------------------------------------------------------
|  sn= 1 | S(rot)=       0.01399918 Eh      8.78 kcal/mol|
|  sn= 2 | S(rot)=       0.01334473 Eh      8.37 kcal/mol|
|  sn= 3 | S(rot)=       0.01296189 Eh      8.13 kcal/mol|
|  sn= 4 | S(rot)=       0.01269027 Eh      7.96 kcal/mol|
|  sn= 5 | S(rot)=       0.01247958 Eh      7.83 kcal/mol|
|  sn= 6 | S(rot)=       0.01230744 Eh      7.72 kcal/mol|
|  sn= 7 | S(rot)=       0.01216189 Eh      7.63 kcal/mol|
|  sn= 8 | S(rot)=       0.01203581 Eh      7.55 kcal/mol|
|  sn= 9 | S(rot)=       0.01192460 Eh      7.48 kcal/mol|
|  sn=10 | S(rot)=       0.01182512 Eh      7.42 kcal/mol|
|  sn=11 | S(rot)=       0.01173513 Eh      7.36 kcal/mol|
|  sn=12 | S(rot)=       0.01165298 Eh      7.31 kcal/mol|
 --------------------------------------------------------

-------------------

                             ****ORCA TERMINATED NORMALLY****
TOTAL RUN TIME: 0 days 20 hours 5 minutes 33 seconds 938 msec
