                         Program Version 5.0.4 -  RELEASE  -
|  1> !B3LYP/G DEF2-TZVP COPT FREQ D4 SOSCF
|  2>
|  3> * xyz 1 1
|  4>   C       0.243494      0.591665      2.756312
|  5>   C      -0.299398      0.789729      1.461024
|  6>   C      -0.028268     -0.083655      0.434033
|  7>   C       0.777132     -1.226285      0.668338
|  8>   C       1.311394     -1.451137      1.956418
|  9>   C       1.052377     -0.564576      2.980337
| 10>   C      -0.017038      1.545496      3.876808
| 11>   H       0.929030      2.033835      4.187823
| 12>   H      -0.389773      1.014499      4.770408
| 13>   H      -0.730464      2.333178      3.603560
| 14>   H      -0.987524      1.625196      1.303903
| 15>   H      -0.443604      0.079315     -0.566950
| 16>   H       0.979683     -1.930633     -0.139689
| 17>   H       1.933671     -2.330386      2.133892
| 18>   H       1.463370     -0.738395      3.978152
| 19>   N      -2.000214     -0.733988    -11.153093
| 20>   O      -1.650104     -0.687118    -10.052207
| 21>   O      -2.143765     -0.266741    -12.199068
| 22> **                         ****END OF INPUT****
 Total Charge           Charge          ....    1
 Multiplicity           Mult            ....    1
 Number of Electrons    NEL             ....   72
Dispersion correction           -0.021390086
FINAL SINGLE POINT ENERGY      -476.470474048846
Dispersion correction            ... Starting D4
Dispersion correction           -0.021415070
FINAL SINGLE POINT ENERGY      -476.485981308865
Dispersion correction            ... Starting D4
Dispersion correction           -0.021443316
FINAL SINGLE POINT ENERGY      -476.516780644718
Dispersion correction            ... Starting D4
FINAL SINGLE POINT ENERGY      -476.521005656119
FINAL SINGLE POINT ENERGY      -476.521647513579
FINAL SINGLE POINT ENERGY      -476.523045829231
FINAL SINGLE POINT ENERGY      -476.525677630178
FINAL SINGLE POINT ENERGY      -476.526525398844
FINAL SINGLE POINT ENERGY      -476.526923416807
FINAL SINGLE POINT ENERGY      -476.526955383249
FINAL SINGLE POINT ENERGY      -476.527084719947
FINAL SINGLE POINT ENERGY      -476.527092595659
FINAL SINGLE POINT ENERGY      -476.527097850869
FINAL SINGLE POINT ENERGY      -476.527100821319
FINAL SINGLE POINT ENERGY      -476.527103654492
FINAL SINGLE POINT ENERGY      -476.527107185207
FINAL SINGLE POINT ENERGY      -476.527110362227
Dispersion correction           -0.021507376
FINAL SINGLE POINT ENERGY      -476.527112155820
Dispersion correction            ... Starting D4
Dispersion correction           -0.021508192
FINAL SINGLE POINT ENERGY      -476.527113190509
Dispersion correction            ... Starting D4
                    ***********************HURRAY********************

CARTESIAN COORDINATES (ANGSTROEM)
---------------------------------
  C      0.239747    0.579246    2.757238
  C     -0.300409    0.788347    1.472727
  C     -0.036191   -0.093969    0.448273
  C      0.773519   -1.216110    0.682437
  C      1.312180   -1.444731    1.956267
  C      1.050208   -0.560571    2.977049
  C     -0.014934    1.536343    3.866001
  H      0.921627    2.018982    4.169534
  H     -0.386580    1.016927    4.754625
  H     -0.724141    2.312375    3.586506
  H     -0.927129    1.653210    1.301005
  H     -0.450740    0.073172   -0.536586
  H      0.983518   -1.906561   -0.123479
  H      1.932483   -2.313065    2.131021
  H      1.465118   -0.725929    3.963089
  N     -2.003894   -0.739548  -11.158428
  O     -1.648622   -0.681210  -10.061854
  O     -2.143311   -0.267126  -12.201209

 Multiplicity           Mult            ....    1
 Number of Electrons    NEL             ....   72
 Basis Dimension        Dim             ....  358

ORBITAL ENERGIES
----------------

  NO   OCC          E(Eh)            E(eV)
   0   2.0000     -19.471566      -529.8482
   1   2.0000     -19.471328      -529.8418
   2   2.0000     -14.791038      -402.4846
   3   2.0000     -10.325710      -280.9768
   4   2.0000     -10.313069      -280.6329
   5   2.0000     -10.300587      -280.2932
   6   2.0000     -10.299526      -280.2644
   7   2.0000     -10.297789      -280.2171
   8   2.0000     -10.297662      -280.2136
   9   2.0000     -10.278507      -279.6924
  10   2.0000      -1.521322       -41.3973
  11   2.0000      -1.396563       -38.0024
  12   2.0000      -0.986489       -26.8437
  13   2.0000      -0.898412       -24.4470
  14   2.0000      -0.873839       -23.7784
  15   2.0000      -0.861695       -23.4479
  16   2.0000      -0.805590       -21.9212
  17   2.0000      -0.799354       -21.7515
  18   2.0000      -0.795452       -21.6454
  19   2.0000      -0.782480       -21.2924
  20   2.0000      -0.729990       -19.8640
  21   2.0000      -0.708515       -19.2797
  22   2.0000      -0.635429       -17.2909
  23   2.0000      -0.597845       -16.2682
  24   2.0000      -0.592972       -16.1356
  25   2.0000      -0.588553       -16.0153
  26   2.0000      -0.575223       -15.6526
  27   2.0000      -0.546773       -14.8785
  28   2.0000      -0.536927       -14.6105
  29   2.0000      -0.531881       -14.4732
  30   2.0000      -0.501531       -13.6473
  31   2.0000      -0.478532       -13.0215
  32   2.0000      -0.469796       -12.7838
  33   2.0000      -0.461983       -12.5712
  34   2.0000      -0.382034       -10.3957
  35   2.0000      -0.358857        -9.7650
  36   0.0000      -0.350860        -9.5474
  37   0.0000      -0.271212        -7.3800
  38   0.0000      -0.137940        -3.7535
  39   0.0000      -0.129559        -3.5255
  40   0.0000      -0.066858        -1.8193

MULLIKEN ATOMIC CHARGES
-----------------------
   0 C :    0.188807
   1 C :   -0.155327
   2 C :   -0.080050
   3 C :   -0.062466
   4 C :   -0.084651
   5 C :   -0.146949
   6 C :   -0.346683
   7 H :    0.156133
   8 H :    0.152845
   9 H :    0.136152
  10 H :    0.140471
  11 H :    0.141209
  12 H :    0.151857
  13 H :    0.148719
  14 H :    0.148087
  15 N :    0.570690
  16 O :   -0.033137
  17 O :   -0.025706
Sum of atomic charges:    1.0000000

LOEWDIN ATOMIC CHARGES
----------------------
   0 C :   -0.095672
   1 C :   -0.078874
   2 C :   -0.100035
   3 C :   -0.055412
   4 C :   -0.103631
   5 C :   -0.066635
   6 C :   -0.225715
   7 H :    0.152304
   8 H :    0.148267
   9 H :    0.135161
  10 H :    0.155771
  11 H :    0.153817
  12 H :    0.154561
  13 H :    0.156079
  14 H :    0.158167
  15 N :    0.022285
  16 O :    0.241092
  17 O :    0.248470

  Mayer bond orders larger than 0.100000
B(  0-C ,  1-C ) :   1.2951 B(  0-C ,  5-C ) :   1.2361 B(  0-C ,  6-C ) :   0.9389
B(  0-C , 15-N ) :   0.1061 B(  1-C ,  2-C ) :   1.4869 B(  1-C , 10-H ) :   0.9531
B(  2-C ,  3-C ) :   1.3079 B(  2-C , 11-H ) :   0.9594 B(  3-C ,  4-C ) :   1.3207
B(  3-C , 12-H ) :   0.9532 B(  3-C , 15-N ) :   0.1148 B(  4-C ,  5-C ) :   1.4958
B(  4-C , 13-H ) :   0.9573 B(  5-C , 14-H ) :   0.9614 B(  6-C ,  7-H ) :   0.9339
B(  6-C ,  8-H ) :   0.9482 B(  6-C ,  9-H ) :   0.9864 B( 15-N , 16-O ) :   1.8207
B( 15-N , 17-O ) :   1.8280 B( 16-O , 17-O ) :   0.3413

Dispersion correction           -0.021507946
FINAL SINGLE POINT ENERGY      -476.527114002431

DIPOLE MOMENT
-------------
                                X             Y             Z
Electronic contribution:     -6.07976      -3.73307     -39.64061
Nuclear contribution   :      5.27911       3.52557      35.29607
                        -----------------------------------------
Total Dipole Moment    :     -0.80065      -0.20750      -4.34454
                        -----------------------------------------
Magnitude (a.u.)       :      4.42257
Magnitude (Debye)      :     11.24128

Dispersion correction in the Hessian             ... Starting D4

VIBRATIONAL FREQUENCIES
-----------------------

Scaling factor for frequencies =  1.000000000  (already applied!)

   0:         0.00 cm**-1
   1:         0.00 cm**-1
   2:         0.00 cm**-1
   3:         0.00 cm**-1
   4:         0.00 cm**-1
   5:         0.00 cm**-1
   6:       -13.61 cm**-1 ***imaginary mode***
   7:       -11.07 cm**-1 ***imaginary mode***
   8:       -10.05 cm**-1 ***imaginary mode***
   9:        -8.62 cm**-1 ***imaginary mode***
  10:         4.86 cm**-1
  11:        21.71 cm**-1
  12:        28.14 cm**-1
  13:       185.60 cm**-1
  14:       346.17 cm**-1
  15:       384.74 cm**-1
  16:       449.66 cm**-1
  17:       517.03 cm**-1
  18:       556.45 cm**-1
  19:       566.49 cm**-1
  20:       646.11 cm**-1
  21:       754.53 cm**-1
  22:       795.44 cm**-1
  23:       828.50 cm**-1
  24:       929.48 cm**-1
  25:       991.19 cm**-1
  26:       991.93 cm**-1
  27:      1008.72 cm**-1
  28:      1015.87 cm**-1
  29:      1031.26 cm**-1
  30:      1034.42 cm**-1
  31:      1108.03 cm**-1
  32:      1171.15 cm**-1
  33:      1211.35 cm**-1
  34:      1247.15 cm**-1
  35:      1323.65 cm**-1
  36:      1330.17 cm**-1
  37:      1373.07 cm**-1
  38:      1394.57 cm**-1
  39:      1428.80 cm**-1
  40:      1456.70 cm**-1
  41:      1482.55 cm**-1
  42:      1507.10 cm**-1
  43:      1522.96 cm**-1
  44:      1657.59 cm**-1
  45:      2052.23 cm**-1
  46:      3007.84 cm**-1
  47:      3050.03 cm**-1
  48:      3131.49 cm**-1
  49:      3184.82 cm**-1
  50:      3188.19 cm**-1
  51:      3196.06 cm**-1
  52:      3204.17 cm**-1
  53:      3211.15 cm**-1

IR SPECTRUM
-----------

 Mode   freq       eps      Int      T**2         TX        TY        TZ
       cm**-1   L/(mol*cm) km/mol    a.u.
----------------------------------------------------------------------------
 10:      4.86   0.000000    0.00  0.000000  ( 0.000000  0.000000  0.000000)
 11:     21.71   0.000413    2.08  0.005930  ( 0.070512 -0.025341 -0.017780)
 12:     28.14   0.000205    1.04  0.002274  (-0.029038 -0.032016  0.020138)
 13:    185.60   0.000293    1.48  0.000493  ( 0.019217  0.011125 -0.000202)
 14:    346.17   0.001908    9.64  0.001720  (-0.010427  0.001953 -0.040089)
 15:    384.74   0.000017    0.08  0.000014  ( 0.001282 -0.000082  0.003454)
 16:    449.66   0.000824    4.16  0.000572  (-0.019216 -0.011735 -0.008057)
 17:    517.03   0.378691  1913.75  0.228564  (-0.082360 -0.008904 -0.470852)
 18:    556.45   1.314227  6641.57  0.737029  (-0.147184 -0.012469 -0.845701)
 19:    566.49   0.137287  693.79  0.075627  ( 0.042446  0.009830  0.271531)
 20:    646.11   0.005748   29.05  0.002776  (-0.042200 -0.028212  0.014117)
 21:    754.53   0.008884   44.90  0.003674  (-0.049033 -0.031093  0.017414)
 22:    795.44   0.003631   18.35  0.001425  ( 0.005671 -0.002575  0.037227)
 23:    828.50   0.000038    0.19  0.000014  ( 0.003056  0.001763 -0.001378)
 24:    929.48   0.000445    2.25  0.000149  (-0.002004  0.000199  0.012057)
 25:    991.19   0.003939   19.91  0.001240  ( 0.004358  0.005049  0.034580)
 26:    991.93   0.022495  113.68  0.007077  ( 0.011691  0.013389  0.082225)
 27:   1008.72   0.000149    0.75  0.000046  (-0.004950 -0.003826 -0.002637)
 28:   1015.87   0.012457   62.95  0.003827  (-0.014667  0.000634 -0.060093)
 29:   1031.26   0.000758    3.83  0.000230  ( 0.000285 -0.006947  0.013460)
 30:   1034.42   0.003210   16.22  0.000968  (-0.019146 -0.015211 -0.019249)
 31:   1108.03   0.004413   22.30  0.001243  ( 0.015054 -0.011233  0.029833)
 32:   1171.15   0.003490   17.64  0.000930  ( 0.003074  0.006171  0.029706)
 33:   1211.35   0.120044  606.65  0.030925  (-0.029490 -0.013193 -0.172863)
 34:   1247.15   0.086143  435.33  0.021555  (-0.021661 -0.019185 -0.143936)
 35:   1323.65   0.838971  4239.82  0.197796  ( 0.078748  0.025305  0.436983)
 36:   1330.17   0.770783  3895.22  0.180829  (-0.079049 -0.013420 -0.417613)
 37:   1373.07   0.000594    3.00  0.000135  ( 0.007135 -0.006264  0.006695)
 38:   1394.57   0.005472   27.65  0.001224  ( 0.000715  0.019977  0.028719)
 39:   1428.80   0.000354    1.79  0.000077  (-0.006354  0.002895 -0.005353)
 40:   1456.70   0.002035   10.28  0.000436  ( 0.012344  0.014511 -0.008544)
 41:   1482.55   0.010137   51.23  0.002134  (-0.015971 -0.001782 -0.043307)
 42:   1507.10   0.019553   98.81  0.004049  ( 0.006889 -0.033655 -0.053560)
 43:   1522.96   0.002957   14.94  0.000606  (-0.013379  0.013002 -0.016059)
 44:   1657.59   0.163672  827.13  0.030813  ( 0.027875  0.015297  0.172634)
 45:   2052.23   0.067942  343.35  0.010331  ( 0.022673 -0.019706  0.097103)
 46:   3007.84   0.027472  138.83  0.002850  ( 0.005706  0.008833  0.052342)
 47:   3050.03   0.000133    0.67  0.000014  (-0.003238 -0.001358 -0.001127)
 48:   3131.49   0.009449   47.75  0.000942  (-0.003064  0.013447  0.027413)
 49:   3184.82   0.001403    7.09  0.000137  ( 0.001318  0.002324  0.011414)
 50:   3188.19   0.000064    0.32  0.000006  ( 0.001024 -0.002016 -0.001070)
 51:   3196.06   0.003200   16.17  0.000312  ( 0.000726  0.004943  0.016957)
 52:   3204.17   0.000251    1.27  0.000024  ( 0.002967 -0.003948 -0.000200)
 53:   3211.15   0.003377   17.07  0.000328  ( 0.004553 -0.002095  0.017408)

--------------------------
THERMOCHEMISTRY AT 298.15K
--------------------------

Temperature         ... 298.15 K
Pressure            ... 1.00 atm
Total Mass          ... 138.15 AMU

Throughout the following assumptions are being made:
  (1) The electronic state is orbitally nondegenerate
  (2) There are no thermally accessible electronically excited states
  (3) Hindered rotations indicated by low frequency modes are not
      treated as such but are treated as vibrations and this may
      cause some error
  (4) All equations used are the standard statistical mechanics
      equations for an ideal gas
  (5) All vibrations are strictly harmonic

freq.       4.86  E(vib)   ...       0.59
freq.      21.71  E(vib)   ...       0.56
freq.      28.14  E(vib)   ...       0.55
freq.     185.60  E(vib)   ...       0.37
freq.     346.17  E(vib)   ...       0.23
freq.     384.74  E(vib)   ...       0.20
freq.     449.66  E(vib)   ...       0.17
freq.     517.03  E(vib)   ...       0.13
freq.     556.45  E(vib)   ...       0.12
freq.     566.49  E(vib)   ...       0.11
freq.     646.11  E(vib)   ...       0.09
freq.     754.53  E(vib)   ...       0.06
freq.     795.44  E(vib)   ...       0.05
freq.     828.50  E(vib)   ...       0.04
freq.     929.48  E(vib)   ...       0.03
freq.     991.19  E(vib)   ...       0.02
freq.     991.93  E(vib)   ...       0.02
freq.    1008.72  E(vib)   ...       0.02
freq.    1015.87  E(vib)   ...       0.02
freq.    1031.26  E(vib)   ...       0.02
freq.    1034.42  E(vib)   ...       0.02
freq.    1108.03  E(vib)   ...       0.02
freq.    1171.15  E(vib)   ...       0.01
freq.    1211.35  E(vib)   ...       0.01
freq.    1247.15  E(vib)   ...       0.01
freq.    1323.65  E(vib)   ...       0.01
freq.    1330.17  E(vib)   ...       0.01
freq.    1373.07  E(vib)   ...       0.01
freq.    1394.57  E(vib)   ...       0.00
freq.    1428.80  E(vib)   ...       0.00
freq.    1456.70  E(vib)   ...       0.00
freq.    1482.55  E(vib)   ...       0.00
freq.    1507.10  E(vib)   ...       0.00
freq.    1522.96  E(vib)   ...       0.00
freq.    1657.59  E(vib)   ...       0.00
freq.    2052.23  E(vib)   ...       0.00
freq.    3007.84  E(vib)   ...       0.00
freq.    3050.03  E(vib)   ...       0.00
freq.    3131.49  E(vib)   ...       0.00
freq.    3184.82  E(vib)   ...       0.00
freq.    3188.19  E(vib)   ...       0.00
freq.    3196.06  E(vib)   ...       0.00
freq.    3204.17  E(vib)   ...       0.00
freq.    3211.15  E(vib)   ...       0.00

------------
INNER ENERGY
------------

The inner energy is: U= E(el) + E(ZPE) + E(vib) + E(rot) + E(trans)
    E(el)   - is the total energy from the electronic structure calculation
              = E(kin-el) + E(nuc-el) + E(el-el) + E(nuc-nuc)
    E(ZPE)  - the the zero temperature vibrational energy from the frequency calculation
    E(vib)  - the the finite temperature correction to E(ZPE) due to population
              of excited vibrational states
    E(rot)  - is the rotational thermal energy
    E(trans)- is the translational thermal energy

Summary of contributions to the inner energy U:
Electronic energy                ...   -476.52711400 Eh
Zero point energy                ...      0.13561723 Eh      85.10 kcal/mol
Thermal vibrational correction   ...      0.00560270 Eh       3.52 kcal/mol
Thermal rotational correction    ...      0.00141627 Eh       0.89 kcal/mol
Thermal translational correction ...      0.00141627 Eh       0.89 kcal/mol
-----------------------------------------------------------------------
Total thermal energy                   -476.38306153 Eh

Summary of corrections to the electronic energy:
(perhaps to be used in another calculation)
Total thermal correction                  0.00843524 Eh       5.29 kcal/mol
Non-thermal (ZPE) correction              0.13561723 Eh      85.10 kcal/mol
-----------------------------------------------------------------------
Total correction                          0.14405247 Eh      90.39 kcal/mol

--------
ENTHALPY
--------

The enthalpy is H = U + kB*T
                kB is Boltzmann's constant
Total free energy                 ...   -476.38306153 Eh
Thermal Enthalpy correction       ...      0.00094421 Eh       0.59 kcal/mol
-----------------------------------------------------------------------
Total Enthalpy                    ...   -476.38211732 Eh

Note: Only C1 symmetry has been detected, increase convergence thresholds
      if your molecule has a higher symmetry. Symmetry factor of 1.0 is
      used for the rotational entropy correction.

Note: Rotational entropy computed according to Herzberg
Infrared and Raman Spectra, Chapter V,1, Van Nostrand Reinhold, 1945
Point Group:  C1, Symmetry Number:   1
Rotational constants in cm-1:     0.115880     0.002953     0.002883

Vibrational entropy computed according to the QRRHO of S. Grimme
Chem.Eur.J. 2012 18 9955

-------
ENTROPY
-------

The entropy contributions are T*S = T*(S(el)+S(vib)+S(rot)+S(trans))
     S(el)   - electronic entropy
     S(vib)  - vibrational entropy
     S(rot)  - rotational entropy
     S(trans)- translational entropy
The entropies will be listed as multiplied by the temperature to get
units of energy

Electronic entropy                ...      0.00000000 Eh      0.00 kcal/mol
Vibrational entropy               ...      0.01108200 Eh      6.95 kcal/mol
Rotational entropy                ...      0.01603943 Eh     10.06 kcal/mol
Translational entropy             ...      0.01932890 Eh     12.13 kcal/mol
-----------------------------------------------------------------------
Final entropy term                ...      0.04645033 Eh     29.15 kcal/mol

In case the symmetry of your molecule has not been determined correctly
or in case you have a reason to use a different symmetry number we print
out the resulting rotational entropy values for sn=1,12 :
 --------------------------------------------------------
|  sn= 1 | S(rot)=       0.01603943 Eh     10.06 kcal/mol|
|  sn= 2 | S(rot)=       0.01538497 Eh      9.65 kcal/mol|
|  sn= 3 | S(rot)=       0.01500214 Eh      9.41 kcal/mol|
|  sn= 4 | S(rot)=       0.01473052 Eh      9.24 kcal/mol|
|  sn= 5 | S(rot)=       0.01451983 Eh      9.11 kcal/mol|
|  sn= 6 | S(rot)=       0.01434768 Eh      9.00 kcal/mol|
|  sn= 7 | S(rot)=       0.01420214 Eh      8.91 kcal/mol|
|  sn= 8 | S(rot)=       0.01407606 Eh      8.83 kcal/mol|
|  sn= 9 | S(rot)=       0.01396485 Eh      8.76 kcal/mol|
|  sn=10 | S(rot)=       0.01386537 Eh      8.70 kcal/mol|
|  sn=11 | S(rot)=       0.01377538 Eh      8.64 kcal/mol|
|  sn=12 | S(rot)=       0.01369323 Eh      8.59 kcal/mol|
 --------------------------------------------------------

-------------------
GIBBS FREE ENERGY
-------------------

                             ****ORCA TERMINATED NORMALLY****
TOTAL RUN TIME: 0 days 8 hours 52 minutes 38 seconds 682 msec
