                         Program Version 5.0.4 -  RELEASE  -
|  1> !B3LYP DEF2-SVP OPT FREQ D4 SOSCF
|  2>
|  3> %geom
|  4> convergence tight
|  5> maxIter 1000
|  6> end
|  7>
|  8> * xyz 1 1
|  9>   C   -5.77190899756551      0.97723043544353     -0.00429747173512
| 10>   C   -6.81843335297649      1.43023752085684     -0.82820112888528
| 11>   C   -7.41148266026564      0.59290849074008     -1.76878047471890
| 12>   C   -6.94907295050933     -0.71929996918392     -1.88409332893447
| 13>   C   -5.91586361656516     -1.20554921933111     -1.08318559615259
| 14>   C   -5.33594589944608     -0.35105499555946     -0.14763930096031
| 15>   C   -5.12256800583965      1.90468483140822      0.98835757687842
| 16>   H   -4.57293617068944      1.35067434556472      1.76322747068120
| 17>   H   -5.86566022722619      2.54930861295445      1.48298170520713
| 18>   H   -4.40186960064139      2.57093842488730      0.48254793485813
| 19>   H   -7.17510727682423      2.45873085401243     -0.72773185178108
| 20>   H   -8.22355811545432      0.93235153508668     -2.41093510360105
| 21>   H   -5.58662985711897     -2.23740546724368     -1.20170800324744
| 22>   H   -4.52772955105144     -0.72308000407277      0.48716381082813
| 23>   N   -7.57137726796606     -1.61367945057647     -2.87273932968167
| 24>   O   -7.14830949785680     -2.75754283352188     -2.95222328022583
| 25>   O   -8.47669868729433     -1.16162765113358     -3.55890496743500
| 26>   H      -11.33229       -6.01561       -8.15063
| 27> **                         ****END OF INPUT****
 Total Charge           Charge          ....    1
 Multiplicity           Mult            ....    1
 Number of Electrons    NEL             ....   72
Dispersion correction           -0.026440070
FINAL SINGLE POINT ENERGY      -475.489092489228
Dispersion correction            ... Starting D4
Dispersion correction           -0.026439319
FINAL SINGLE POINT ENERGY      -475.593500534856
Dispersion correction            ... Starting D4
Dispersion correction           -0.026435935
FINAL SINGLE POINT ENERGY      -475.593820987517
Dispersion correction            ... Starting D4
FINAL SINGLE POINT ENERGY      -475.594727268246
FINAL SINGLE POINT ENERGY      -475.596644430525
FINAL SINGLE POINT ENERGY      -475.597548350684
FINAL SINGLE POINT ENERGY      -475.598108929924
FINAL SINGLE POINT ENERGY      -475.598561062355
FINAL SINGLE POINT ENERGY      -475.598843970388
FINAL SINGLE POINT ENERGY      -475.598906858649
FINAL SINGLE POINT ENERGY      -475.599082112736
FINAL SINGLE POINT ENERGY      -475.599103307718
FINAL SINGLE POINT ENERGY      -475.599124447908
FINAL SINGLE POINT ENERGY      -475.599145561427
FINAL SINGLE POINT ENERGY      -475.599166669122
FINAL SINGLE POINT ENERGY      -475.599187639642
FINAL SINGLE POINT ENERGY      -475.599208472670
Dispersion correction           -0.026482637
FINAL SINGLE POINT ENERGY      -475.599229207343
Dispersion correction            ... Starting D4
Dispersion correction           -0.026482818
FINAL SINGLE POINT ENERGY      -475.599249824325
Dispersion correction            ... Starting D4
                    ***********************HURRAY********************

CARTESIAN COORDINATES (ANGSTROEM)
---------------------------------
  C     -5.727034    1.015350    0.036961
  C     -6.844540    1.461767   -0.732339
  C     -7.457992    0.626516   -1.644782
  C     -6.953934   -0.680588   -1.791912
  C     -5.856105   -1.166020   -1.053011
  C     -5.251545   -0.315696   -0.147531
  C     -5.059662    1.936703    0.991445
  H     -4.456228    1.404142    1.739512
  H     -5.782985    2.601927    1.490522
  H     -4.372390    2.606549    0.431981
  H     -7.215160    2.479716   -0.591752
  H     -8.307422    0.950298   -2.247659
  H     -5.514803   -2.191310   -1.202268
  H     -4.398690   -0.663221    0.439552
  N     -7.599432   -1.574068   -2.749782
  O     -7.666057   -2.752401   -2.449099
  O     -8.023206   -1.074398   -3.776176
  H    -11.720256   -6.683051   -9.130453

 Multiplicity           Mult            ....    1
 Number of Electrons    NEL             ....   72
 Basis Dimension        Dim             ....  180

ORBITAL ENERGIES
----------------

  NO   OCC          E(Eh)            E(eV)
   0   2.0000     -19.317962      -525.6685
   1   2.0000     -19.317718      -525.6618
   2   2.0000     -14.706718      -400.1901
   3   2.0000     -10.419228      -283.5216
   4   2.0000     -10.392615      -282.7974
   5   2.0000     -10.371652      -282.2270
   6   2.0000     -10.370886      -282.2062
   7   2.0000     -10.365614      -282.0627
   8   2.0000     -10.364524      -282.0330
   9   2.0000     -10.335487      -281.2429
  10   2.0000      -1.375385       -37.4261
  11   2.0000      -1.202056       -32.7096
  12   2.0000      -1.039270       -28.2800
  13   2.0000      -0.966502       -26.2998
  14   2.0000      -0.918708       -24.9993
  15   2.0000      -0.885867       -24.1057
  16   2.0000      -0.800073       -21.7711
  17   2.0000      -0.781624       -21.2691
  18   2.0000      -0.733436       -19.9578
  19   2.0000      -0.699276       -19.0283
  20   2.0000      -0.689335       -18.7577
  21   2.0000      -0.657947       -17.9037
  22   2.0000      -0.632854       -17.2208
  23   2.0000      -0.630170       -17.1478
  24   2.0000      -0.603847       -16.4315
  25   2.0000      -0.597115       -16.2483
  26   2.0000      -0.573887       -15.6163
  27   2.0000      -0.539940       -14.6925
  28   2.0000      -0.534068       -14.5327
  29   2.0000      -0.526052       -14.3146
  30   2.0000      -0.510884       -13.9019
  31   2.0000      -0.459891       -12.5143
  32   2.0000      -0.455824       -12.4036
  33   2.0000      -0.446542       -12.1510
  34   2.0000      -0.430825       -11.7233
  35   2.0000      -0.402510       -10.9529
  36   0.0000      -0.393062       -10.6958
  37   0.0000      -0.230124        -6.2620
  38   0.0000      -0.176667        -4.8074
  39   0.0000      -0.164693        -4.4815
  40   0.0000      -0.069641        -1.8950

MULLIKEN ATOMIC CHARGES
-----------------------
   0 C :   -0.015272
   1 C :    0.021341
   2 C :    0.061738
   3 C :    0.136736
   4 C :    0.064041
   5 C :    0.021032
   6 C :    0.060387
   7 H :    0.064104
   8 H :    0.073182
   9 H :    0.096407
  10 H :    0.040190
  11 H :    0.050185
  12 H :    0.050858
  13 H :    0.040089
  14 N :    0.240409
  15 O :   -0.160659
  16 O :   -0.161770
  17 H :    0.317003
Sum of atomic charges:    1.0000000

LOEWDIN ATOMIC CHARGES
----------------------
   0 C :    0.084606
   1 C :    0.028763
   2 C :    0.028454
   3 C :    0.051301
   4 C :    0.032457
   5 C :    0.024475
   6 C :   -0.028232
   7 H :    0.053704
   8 H :    0.062212
   9 H :    0.082578
  10 H :    0.055466
  11 H :    0.062035
  12 H :    0.062313
  13 H :    0.055470
  14 N :    0.275890
  15 O :   -0.123669
  16 O :   -0.124826
  17 H :    0.317003

  Mayer bond orders larger than 0.100000
B(  0-C ,  1-C ) :   1.2340 B(  0-C ,  5-C ) :   1.2502 B(  0-C ,  6-C ) :   1.1080
B(  0-C , 17-H ) :   0.1975 B(  1-C ,  2-C ) :   1.4356 B(  1-C , 10-H ) :   0.9868
B(  2-C ,  3-C ) :   1.2841 B(  2-C , 11-H ) :   0.9874 B(  3-C ,  4-C ) :   1.2783
B(  3-C , 14-N ) :   0.8643 B(  3-C , 17-H ) :   0.2110 B(  4-C ,  5-C ) :   1.4313
B(  4-C , 12-H ) :   0.9869 B(  5-C , 13-H ) :   0.9856 B(  6-C ,  7-H ) :   0.9518
B(  6-C ,  8-H ) :   0.9382 B(  6-C ,  9-H ) :   0.9068 B( 14-N , 15-O ) :   1.5285
B( 14-N , 16-O ) :   1.5298 B( 15-O , 16-O ) :   0.2919 B( 15-O , 17-H ) :   0.1045
B( 16-O , 17-H ) :   0.1006

Dispersion correction           -0.026482818
FINAL SINGLE POINT ENERGY      -475.599249834635

DIPOLE MOMENT
-------------
                                X             Y             Z
Electronic contribution:     -3.57626      -5.13220      -5.11731
Nuclear contribution   :      1.80805       3.03926       2.26692
                        -----------------------------------------
Total Dipole Moment    :     -1.76821      -2.09294      -2.85039
                        -----------------------------------------
Magnitude (a.u.)       :      3.95370
Magnitude (Debye)      :     10.04950

Dispersion correction in the Hessian             ... Starting D4

VIBRATIONAL FREQUENCIES
-----------------------

Scaling factor for frequencies =  1.000000000  (already applied!)

   0:         0.00 cm**-1
   1:         0.00 cm**-1
   2:         0.00 cm**-1
   3:         0.00 cm**-1
   4:         0.00 cm**-1
   5:         0.00 cm**-1
   6:        -6.09 cm**-1 ***imaginary mode***
   7:         4.99 cm**-1
   8:        10.19 cm**-1
   9:        16.82 cm**-1
  10:        77.78 cm**-1
  11:        93.25 cm**-1
  12:       199.17 cm**-1
  13:       241.02 cm**-1
  14:       349.99 cm**-1
  15:       356.05 cm**-1
  16:       391.66 cm**-1
  17:       430.49 cm**-1
  18:       539.27 cm**-1
  19:       588.76 cm**-1
  20:       619.98 cm**-1
  21:       682.43 cm**-1
  22:       751.62 cm**-1
  23:       789.78 cm**-1
  24:       821.67 cm**-1
  25:       843.80 cm**-1
  26:       854.79 cm**-1
  27:       981.18 cm**-1
  28:       990.02 cm**-1
  29:      1005.84 cm**-1
  30:      1015.77 cm**-1
  31:      1021.97 cm**-1
  32:      1138.47 cm**-1
  33:      1143.18 cm**-1
  34:      1202.26 cm**-1
  35:      1253.44 cm**-1
  36:      1290.71 cm**-1
  37:      1346.71 cm**-1
  38:      1368.37 cm**-1
  39:      1418.04 cm**-1
  40:      1422.04 cm**-1
  41:      1434.24 cm**-1
  42:      1455.10 cm**-1
  43:      1485.83 cm**-1
  44:      1491.62 cm**-1
  45:      1601.14 cm**-1
  46:      1660.73 cm**-1
  47:      2978.63 cm**-1
  48:      3075.56 cm**-1
  49:      3147.67 cm**-1
  50:      3204.03 cm**-1
  51:      3206.48 cm**-1
  52:      3228.35 cm**-1
  53:      3228.82 cm**-1

IR SPECTRUM
-----------

 Mode   freq       eps      Int      T**2         TX        TY        TZ
       cm**-1   L/(mol*cm) km/mol    a.u.
----------------------------------------------------------------------------
  7:      4.99   0.000000    0.00  0.000000  ( 0.000000  0.000000  0.000000)
  8:     10.19   0.000898    4.54  0.027501  ( 0.146472 -0.076965 -0.011131)
  9:     16.82   0.021762  109.97  0.403714  (-0.271454 -0.398756 -0.413546)
 10:     77.78   0.000090    0.45  0.000361  (-0.009522 -0.006702 -0.015015)
 11:     93.25   0.000149    0.75  0.000499  ( 0.017550  0.005800 -0.012552)
 12:    199.17   0.000506    2.56  0.000793  (-0.013901  0.021737 -0.011270)
 13:    241.02   0.000700    3.54  0.000906  (-0.027175  0.004467  0.012159)
 14:    349.99   0.000558    2.82  0.000498  (-0.009161 -0.013375 -0.015333)
 15:    356.05   0.000200    1.01  0.000176  (-0.009495  0.008660  0.003247)
 16:    391.66   0.000053    0.27  0.000042  (-0.001315 -0.003522 -0.005268)
 17:    430.49   0.000581    2.93  0.000421  ( 0.005087  0.018027 -0.008376)
 18:    539.27   0.002112   10.67  0.001222  ( 0.028237  0.016382 -0.012505)
 19:    588.76   0.000048    0.24  0.000026  (-0.002842  0.003084 -0.002814)
 20:    619.98   0.004308   21.77  0.002168  (-0.020012 -0.027316 -0.031962)
 21:    682.43   0.000926    4.68  0.000423  ( 0.018098  0.009766  0.000544)
 22:    751.62   0.005362   27.10  0.002226  (-0.026383 -0.000397  0.039115)
 23:    789.78   0.000692    3.50  0.000274  ( 0.003604  0.006315  0.014855)
 24:    821.67   0.000692    3.50  0.000263  (-0.008702 -0.008839 -0.010444)
 25:    843.80   0.019579   98.94  0.007241  (-0.038530 -0.049766 -0.057267)
 26:    854.79   0.005337   26.97  0.001948  ( 0.002729 -0.006038 -0.043640)
 27:    981.18   0.016808   84.94  0.005346  ( 0.039883  0.049739  0.035792)
 28:    990.02   0.005358   27.08  0.001689  (-0.032909 -0.024333 -0.003720)
 29:   1005.84   0.000136    0.69  0.000042  ( 0.002052  0.004856  0.003778)
 30:   1015.77   0.001276    6.45  0.000392  (-0.009624 -0.012813 -0.011630)
 31:   1021.97   0.005362   27.10  0.001637  ( 0.024722  0.029047  0.013509)
 32:   1138.47   0.003287   16.61  0.000901  (-0.002362  0.029298  0.006096)
 33:   1143.18   0.015151   76.57  0.004136  ( 0.030311  0.033761  0.045577)
 34:   1202.26   0.021034  106.30  0.005460  (-0.033830 -0.043569 -0.049163)
 35:   1253.44   0.040948  206.93  0.010195  ( 0.046071  0.060915  0.066041)
 36:   1290.71   0.001979   10.00  0.000479  ( 0.013083  0.008237  0.015478)
 37:   1346.71   0.047028  237.66  0.010897  ( 0.043979  0.077085  0.054965)
 38:   1368.37   0.005312   26.84  0.001211  ( 0.031420  0.005845  0.013783)
 39:   1418.04   0.000622    3.14  0.000137  ( 0.003864  0.009071 -0.006300)
 40:   1422.04   0.000511    2.58  0.000112  ( 0.004098  0.006190  0.007546)
 41:   1434.24   0.010635   53.74  0.002314  ( 0.031268 -0.033480  0.014676)
 42:   1455.10   0.012004   60.67  0.002574  ( 0.021740  0.042962  0.016004)
 43:   1485.83   0.003192   16.13  0.000670  (-0.006104  0.021300  0.013395)
 44:   1491.62   0.035178  177.78  0.007360  (-0.039586 -0.049449 -0.057857)
 45:   1601.14   0.026673  134.80  0.005199  ( 0.009463 -0.055476  0.045072)
 46:   1660.73   0.176746  893.20  0.033212  (-0.081815 -0.107361 -0.122441)
 47:   2978.63   0.075024  379.14  0.007860  (-0.042439 -0.055563 -0.054513)
 48:   3075.56   0.000215    1.09  0.000022  ( 0.004044  0.002048 -0.001141)
 49:   3147.67   0.003670   18.55  0.000364  ( 0.008586  0.011163  0.012866)
 50:   3204.03   0.000136    0.68  0.000013  (-0.002667 -0.000638 -0.002383)
 51:   3206.48   0.000197    1.00  0.000019  ( 0.000789  0.003287  0.002787)
 52:   3228.35   0.003030   15.31  0.000293  (-0.009168  0.014124 -0.003062)
 53:   3228.82   0.001059    5.35  0.000102  ( 0.007673 -0.003667  0.005481)

--------------------------
THERMOCHEMISTRY AT 298.15K
--------------------------

Temperature         ... 298.15 K
Pressure            ... 1.00 atm
Total Mass          ... 138.15 AMU

Throughout the following assumptions are being made:
  (1) The electronic state is orbitally nondegenerate
  (2) There are no thermally accessible electronically excited states
  (3) Hindered rotations indicated by low frequency modes are not
      treated as such but are treated as vibrations and this may
      cause some error
  (4) All equations used are the standard statistical mechanics
      equations for an ideal gas
  (5) All vibrations are strictly harmonic

freq.       4.99  E(vib)   ...       0.59
freq.      10.19  E(vib)   ...       0.58
freq.      16.82  E(vib)   ...       0.57
freq.      77.78  E(vib)   ...       0.49
freq.      93.25  E(vib)   ...       0.47
freq.     199.17  E(vib)   ...       0.35
freq.     241.02  E(vib)   ...       0.31
freq.     349.99  E(vib)   ...       0.23
freq.     356.05  E(vib)   ...       0.22
freq.     391.66  E(vib)   ...       0.20
freq.     430.49  E(vib)   ...       0.18
freq.     539.27  E(vib)   ...       0.12
freq.     588.76  E(vib)   ...       0.10
freq.     619.98  E(vib)   ...       0.09
freq.     682.43  E(vib)   ...       0.08
freq.     751.62  E(vib)   ...       0.06
freq.     789.78  E(vib)   ...       0.05
freq.     821.67  E(vib)   ...       0.05
freq.     843.80  E(vib)   ...       0.04
freq.     854.79  E(vib)   ...       0.04
freq.     981.18  E(vib)   ...       0.02
freq.     990.02  E(vib)   ...       0.02
freq.    1005.84  E(vib)   ...       0.02
freq.    1015.77  E(vib)   ...       0.02
freq.    1021.97  E(vib)   ...       0.02
freq.    1138.47  E(vib)   ...       0.01
freq.    1143.18  E(vib)   ...       0.01
freq.    1202.26  E(vib)   ...       0.01
freq.    1253.44  E(vib)   ...       0.01
freq.    1290.71  E(vib)   ...       0.01
freq.    1346.71  E(vib)   ...       0.01
freq.    1368.37  E(vib)   ...       0.01
freq.    1418.04  E(vib)   ...       0.00
freq.    1422.04  E(vib)   ...       0.00
freq.    1434.24  E(vib)   ...       0.00
freq.    1455.10  E(vib)   ...       0.00
freq.    1485.83  E(vib)   ...       0.00
freq.    1491.62  E(vib)   ...       0.00
freq.    1601.14  E(vib)   ...       0.00
freq.    1660.73  E(vib)   ...       0.00
freq.    2978.63  E(vib)   ...       0.00
freq.    3075.56  E(vib)   ...       0.00
freq.    3147.67  E(vib)   ...       0.00
freq.    3204.03  E(vib)   ...       0.00
freq.    3206.48  E(vib)   ...       0.00
freq.    3228.35  E(vib)   ...       0.00
freq.    3228.82  E(vib)   ...       0.00

------------
INNER ENERGY
------------

The inner energy is: U= E(el) + E(ZPE) + E(vib) + E(rot) + E(trans)
    E(el)   - is the total energy from the electronic structure calculation
              = E(kin-el) + E(nuc-el) + E(el-el) + E(nuc-nuc)
    E(ZPE)  - the the zero temperature vibrational energy from the frequency calculation
    E(vib)  - the the finite temperature correction to E(ZPE) due to population
              of excited vibrational states
    E(rot)  - is the rotational thermal energy
    E(trans)- is the translational thermal energy

Summary of contributions to the inner energy U:
Electronic energy                ...   -475.59924983 Eh
Zero point energy                ...      0.12862477 Eh      80.71 kcal/mol
Thermal vibrational correction   ...      0.00799855 Eh       5.02 kcal/mol
Thermal rotational correction    ...      0.00141627 Eh       0.89 kcal/mol
Thermal translational correction ...      0.00141627 Eh       0.89 kcal/mol
-----------------------------------------------------------------------
Total thermal energy                   -475.45979396 Eh

Summary of corrections to the electronic energy:
(perhaps to be used in another calculation)
Total thermal correction                  0.01083110 Eh       6.80 kcal/mol
Non-thermal (ZPE) correction              0.12862477 Eh      80.71 kcal/mol
-----------------------------------------------------------------------
Total correction                          0.13945587 Eh      87.51 kcal/mol

--------
ENTHALPY
--------

The enthalpy is H = U + kB*T
                kB is Boltzmann's constant
Total free energy                 ...   -475.45979396 Eh
Thermal Enthalpy correction       ...      0.00094421 Eh       0.59 kcal/mol
-----------------------------------------------------------------------
Total Enthalpy                    ...   -475.45884976 Eh

Note: Only C1 symmetry has been detected, increase convergence thresholds
      if your molecule has a higher symmetry. Symmetry factor of 1.0 is
      used for the rotational entropy correction.

Note: Rotational entropy computed according to Herzberg
Infrared and Raman Spectra, Chapter V,1, Van Nostrand Reinhold, 1945
Point Group:  C1, Symmetry Number:   1
Rotational constants in cm-1:     0.126540     0.022552     0.019652

Vibrational entropy computed according to the QRRHO of S. Grimme
Chem.Eur.J. 2012 18 9955

-------
ENTROPY
-------

The entropy contributions are T*S = T*(S(el)+S(vib)+S(rot)+S(trans))
     S(el)   - electronic entropy
     S(vib)  - vibrational entropy
     S(rot)  - rotational entropy
     S(trans)- translational entropy
The entropies will be listed as multiplied by the temperature to get
units of energy

Electronic entropy                ...      0.00000000 Eh      0.00 kcal/mol
Vibrational entropy               ...      0.01607519 Eh     10.09 kcal/mol
Rotational entropy                ...      0.01413197 Eh      8.87 kcal/mol
Translational entropy             ...      0.01932890 Eh     12.13 kcal/mol
-----------------------------------------------------------------------
Final entropy term                ...      0.04953606 Eh     31.08 kcal/mol

In case the symmetry of your molecule has not been determined correctly
or in case you have a reason to use a different symmetry number we print
out the resulting rotational entropy values for sn=1,12 :
 --------------------------------------------------------
|  sn= 1 | S(rot)=       0.01413197 Eh      8.87 kcal/mol|
|  sn= 2 | S(rot)=       0.01347751 Eh      8.46 kcal/mol|
|  sn= 3 | S(rot)=       0.01309468 Eh      8.22 kcal/mol|
|  sn= 4 | S(rot)=       0.01282305 Eh      8.05 kcal/mol|
|  sn= 5 | S(rot)=       0.01261237 Eh      7.91 kcal/mol|
|  sn= 6 | S(rot)=       0.01244022 Eh      7.81 kcal/mol|
|  sn= 7 | S(rot)=       0.01229468 Eh      7.72 kcal/mol|
|  sn= 8 | S(rot)=       0.01216860 Eh      7.64 kcal/mol|
|  sn= 9 | S(rot)=       0.01205739 Eh      7.57 kcal/mol|
|  sn=10 | S(rot)=       0.01195791 Eh      7.50 kcal/mol|
|  sn=11 | S(rot)=       0.01186792 Eh      7.45 kcal/mol|
|  sn=12 | S(rot)=       0.01178577 Eh      7.40 kcal/mol|
 --------------------------------------------------------

-------------------

                             ****ORCA TERMINATED NORMALLY****
TOTAL RUN TIME: 0 days 3 hours 47 minutes 2 seconds 762 msec
