                         Program Version 5.0.4 -  RELEASE  -
|  1> !B3LYP DEF2-QZVPP
|  2>
|  3> %scf
|  4> convergence tight
|  5> end
|  6>
|  7> * xyz 1 2
|  8>   C   -6.35529566713189      0.98183690763207     -0.00001504036478
|  9>   C   -7.70369862552641      0.57957456761231     -0.00000173744009
| 10>   C   -8.02102163499719     -0.77812943500883      0.00001944975110
| 11>   C   -7.00414212151022     -1.73832946214561      0.00002743447097
| 12>   C   -5.66330053841805     -1.34054476427431      0.00001396353728
| 13>   C   -5.33361031358612      0.01419348174697     -0.00000730718435
| 14>   C   -6.02185993035994      2.37866436898736     -0.00003589559077
| 15>   H   -8.49093284139212      1.33596053577513     -0.00000808213751
| 16>   H   -9.06839558616840     -1.08907636566259      0.00002985217797
| 17>   H   -7.25784524787421     -2.80130133697912      0.00004422468217
| 18>   H   -4.86880131166015     -2.09058333047744      0.00002017846662
| 19>   H   -4.28975746602226      0.33378924079070     -0.00001788378122
| 20>   N   -5.75052871535300      3.50757559200336     -0.00004915658739
| 21> **                         ****END OF INPUT****

CARTESIAN COORDINATES (ANGSTROEM)
---------------------------------
  C     -6.355296    0.981837   -0.000015
  C     -7.703699    0.579575   -0.000002
  C     -8.021022   -0.778129    0.000019
  C     -7.004142   -1.738329    0.000027
  C     -5.663301   -1.340545    0.000014
  C     -5.333610    0.014193   -0.000007
  C     -6.021860    2.378664   -0.000036
  H     -8.490933    1.335961   -0.000008
  H     -9.068396   -1.089076    0.000030
  H     -7.257845   -2.801301    0.000044
  H     -4.868801   -2.090583    0.000020
  H     -4.289757    0.333789   -0.000018
  N     -5.750529    3.507576   -0.000049

 Total Charge           Charge          ....    1
 Multiplicity           Mult            ....    2
 Number of Electrons    NEL             ....   53
 Basis Dimension        Dim             ....  606

ORBITAL ENERGIES
----------------
                 SPIN UP ORBITALS
  NO   OCC          E(Eh)            E(eV)
   0   1.0000     -14.545645      -395.8071
   1   1.0000     -10.475621      -285.0562
   2   1.0000     -10.440906      -284.1115
   3   1.0000     -10.426180      -283.7108
   4   1.0000     -10.422877      -283.6209
   5   1.0000     -10.422821      -283.6194
   6   1.0000     -10.412636      -283.3422
   7   1.0000     -10.412585      -283.3409
   8   1.0000      -1.132871       -30.8270
   9   1.0000      -1.102617       -30.0037
  10   1.0000      -1.013085       -27.5674
  11   1.0000      -0.980951       -26.6930
  12   1.0000      -0.870798       -23.6956
  13   1.0000      -0.844350       -22.9759
  14   1.0000      -0.775166       -21.0933
  15   1.0000      -0.715777       -19.4773
  16   1.0000      -0.699509       -19.0346
  17   1.0000      -0.663289       -18.0490
  18   1.0000      -0.646735       -17.5986
  19   1.0000      -0.632617       -17.2144
  20   1.0000      -0.593736       -16.1564
  21   1.0000      -0.580529       -15.7970
  22   1.0000      -0.573079       -15.5943
  23   1.0000      -0.569141       -15.4871
  24   1.0000      -0.545339       -14.8394
  25   1.0000      -0.504721       -13.7342
  26   1.0000      -0.487046       -13.2532
  27   0.0000      -0.282064        -7.6754
  28   0.0000      -0.241876        -6.5818
  29   0.0000      -0.175700        -4.7810
  30   0.0000      -0.147083        -4.0023
  31   0.0000      -0.144216        -3.9243

                 SPIN DOWN ORBITALS
  NO   OCC          E(Eh)            E(eV)
   0   1.0000     -14.539442      -395.6383
   1   1.0000     -10.470525      -284.9175
   2   1.0000     -10.435662      -283.9688
   3   1.0000     -10.427494      -283.7465
   4   1.0000     -10.422297      -283.6051
   5   1.0000     -10.422251      -283.6039
   6   1.0000     -10.412482      -283.3380
   7   1.0000     -10.412440      -283.3369
   8   1.0000      -1.120343       -30.4861
   9   1.0000      -1.092110       -29.7178
  10   1.0000      -0.998894       -27.1813
  11   1.0000      -0.979099       -26.6426
  12   1.0000      -0.865467       -23.5505
  13   1.0000      -0.839701       -22.8494
  14   1.0000      -0.773089       -21.0368
  15   1.0000      -0.712798       -19.3962
  16   1.0000      -0.696318       -18.9478
  17   1.0000      -0.660206       -17.9651
  18   1.0000      -0.646509       -17.5924
  19   1.0000      -0.607334       -16.5264
  20   1.0000      -0.591245       -16.0886
  21   1.0000      -0.578241       -15.7347
  22   1.0000      -0.561165       -15.2701
  23   1.0000      -0.542043       -14.7497
  24   1.0000      -0.541101       -14.7241
  25   1.0000      -0.483162       -13.1475
  26   0.0000      -0.422945       -11.5089
  27   0.0000      -0.253070        -6.8864
  28   0.0000      -0.231109        -6.2888
  29   0.0000      -0.173698        -4.7266
  30   0.0000      -0.143442        -3.9033

MULLIKEN ATOMIC CHARGES AND SPIN POPULATIONS
--------------------------------------------
   0 C :    0.316524    0.322853
   1 C :   -0.005574    0.043854
   2 C :   -0.001010    0.018407
   3 C :    0.082392    0.353215
   4 C :   -0.003240    0.017915
   5 C :   -0.003749    0.044310
   6 C :   -0.033763   -0.079767
   7 H :    0.135768   -0.002561
   8 H :    0.124556   -0.002103
   9 H :    0.137486   -0.011591
  10 H :    0.125508   -0.002148
  11 H :    0.135394   -0.002475
  12 N :   -0.010291    0.300091
Sum of atomic charges         :    1.0000000

LOEWDIN ATOMIC CHARGES AND SPIN POPULATIONS
-------------------------------------------
   0 C :   -0.053245    0.206698
   1 C :    0.183098    0.065892
   2 C :    0.163205    0.058954
   3 C :    0.216678    0.238549
   4 C :    0.163089    0.058650
   5 C :    0.183249    0.066220
   6 C :   -0.134282    0.044005
   7 H :   -0.014020    0.002705
   8 H :   -0.019759    0.000970
   9 H :   -0.010455    0.022682
  10 H :   -0.019717    0.000931
  11 H :   -0.014048    0.002746
  12 N :    0.356206    0.230998

  Mayer bond orders larger than 0.100000
B(  0-C ,  1-C ) :   1.0897 B(  0-C ,  5-C ) :   1.0886 B(  0-C ,  6-C ) :   1.0077
B(  1-C ,  2-C ) :   1.4267 B(  1-C ,  7-H ) :   0.9415 B(  2-C ,  3-C ) :   1.1874
B(  2-C ,  8-H ) :   0.9491 B(  3-C ,  4-C ) :   1.1884 B(  3-C ,  9-H ) :   0.9438
B(  4-C ,  5-C ) :   1.4272 B(  4-C , 10-H ) :   0.9493 B(  5-C , 11-H ) :   0.9414
B(  6-C , 12-N ) :   2.6531

FINAL SINGLE POINT ENERGY      -324.086375534136

DIPOLE MOMENT
-------------
                                X             Y             Z
Electronic contribution:      0.99669       4.17705      -0.00006
Nuclear contribution   :     -1.46091      -6.11812       0.00009
                        -----------------------------------------
Total Dipole Moment    :     -0.46422      -1.94107       0.00003
                        -----------------------------------------
Magnitude (a.u.)       :      1.99581
Magnitude (Debye)      :      5.07294

Rotational constants in cm-1:     0.187863     0.051251     0.040266
Rotational constants in MHz :  5631.980927  1536.463194  1207.142200

                             ****ORCA TERMINATED NORMALLY****
TOTAL RUN TIME: 0 days 1 hours 24 minutes 37 seconds 320 msec
