                         Program Version 5.0.4 -  RELEASE  -
|  1> !B3LYP DEF2-QZVPP D4 KEEPDENS
|  2>
|  3> %scf
|  4> convergence tight
|  5> end
|  6>
|  7> * xyz 0 1
|  8>   C   -6.19125178160671      1.04578685059177     -0.00000001686577
|  9>   C   -7.37580530487043      0.28825949786031     -0.00000001284834
| 10>   C   -7.33908756893839     -1.10768545106982     -0.00000002576604
| 11>   C   -6.11117938173447     -1.77931819998824      0.00000000290657
| 12>   C   -4.92566072561635     -1.04047352586861      0.00000000533049
| 13>   C   -4.96819058552413      0.35823228576941     -0.00000003398085
| 14>   C   -6.24553993017456      2.55508248967342      0.00000000413099
| 15>   H   -5.23843039862032      2.99755933811265     -0.00000003012539
| 16>   H   -6.78052773252599      2.93791704488256      0.88605739423795
| 17>   H   -6.78052780177066      2.93791706461754     -0.88605733399821
| 18>   H   -8.34213499717683      0.80297272229397      0.00000000580428
| 19>   H   -8.27370961744022     -1.67571619441028     -0.00000001783878
| 20>   H   -6.08022998864363     -2.87249607540980      0.00000001903164
| 21>   H   -3.95993407210113     -1.55389094986220      0.00000004701981
| 22>   H   -4.03307011325617      0.92683310280730     -0.00000000703837
| 23> **                         ****END OF INPUT****

CARTESIAN COORDINATES (ANGSTROEM)
---------------------------------
  C     -6.191252    1.045787   -0.000000
  C     -7.375805    0.288259   -0.000000
  C     -7.339088   -1.107685   -0.000000
  C     -6.111179   -1.779318    0.000000
  C     -4.925661   -1.040474    0.000000
  C     -4.968191    0.358232   -0.000000
  C     -6.245540    2.555082    0.000000
  H     -5.238430    2.997559   -0.000000
  H     -6.780528    2.937917    0.886057
  H     -6.780528    2.937917   -0.886057
  H     -8.342135    0.802973    0.000000
  H     -8.273710   -1.675716   -0.000000
  H     -6.080230   -2.872496    0.000000
  H     -3.959934   -1.553891    0.000000
  H     -4.033070    0.926833   -0.000000

 Total Charge           Charge          ....    0
 Multiplicity           Mult            ....    1
 Number of Electrons    NEL             ....   50
 Basis Dimension        Dim             ....  639

ORBITAL ENERGIES
----------------

  NO   OCC          E(Eh)            E(eV)
   0   2.0000     -10.186559      -277.1904
   1   2.0000     -10.177025      -276.9309
   2   2.0000     -10.176712      -276.9224
   3   2.0000     -10.174735      -276.8686
   4   2.0000     -10.174488      -276.8619
   5   2.0000     -10.174295      -276.8566
   6   2.0000     -10.172041      -276.7953
   7   2.0000      -0.852849       -23.2072
   8   2.0000      -0.768737       -20.9184
   9   2.0000      -0.741147       -20.1676
  10   2.0000      -0.682336       -18.5673
  11   2.0000      -0.601815       -16.3762
  12   2.0000      -0.581264       -15.8170
  13   2.0000      -0.508016       -13.8238
  14   2.0000      -0.458523       -12.4770
  15   2.0000      -0.451702       -12.2914
  16   2.0000      -0.418720       -11.3940
  17   2.0000      -0.417177       -11.3520
  18   2.0000      -0.407172       -11.0797
  19   2.0000      -0.383826       -10.4444
  20   2.0000      -0.355024        -9.6607
  21   2.0000      -0.342049        -9.3076
  22   2.0000      -0.337991        -9.1972
  23   2.0000      -0.253260        -6.8915
  24   2.0000      -0.244067        -6.6414
  25   0.0000      -0.015025        -0.4088
  26   0.0000      -0.009901        -0.2694
  27   0.0000       0.023442         0.6379
  28   0.0000       0.036622         0.9965
  29   0.0000       0.046615         1.2685

MULLIKEN ATOMIC CHARGES
-----------------------
   0 C :    0.122186
   1 C :   -0.094047
   2 C :   -0.088911
   3 C :   -0.048178
   4 C :   -0.086102
   5 C :   -0.102031
   6 C :   -0.123641
   7 H :    0.044048
   8 H :    0.054355
   9 H :    0.054324
  10 H :    0.052862
  11 H :    0.057098
  12 H :    0.054684
  13 H :    0.055621
  14 H :    0.047731
Sum of atomic charges:    0.0000000

LOEWDIN ATOMIC CHARGES
----------------------
   0 C :   -0.107819
   1 C :    0.072165
   2 C :    0.057214
   3 C :    0.053441
   4 C :    0.057659
   5 C :    0.067943
   6 C :    0.225274
   7 H :   -0.049951
   8 H :   -0.047384
   9 H :   -0.047384
  10 H :   -0.052489
  11 H :   -0.057376
  12 H :   -0.058868
  13 H :   -0.057468
  14 H :   -0.054956

  Mayer bond orders larger than 0.100000
B(  0-C ,  1-C ) :   1.2351 B(  0-C ,  5-C ) :   1.2564 B(  0-C ,  6-C ) :   0.9388
B(  1-C ,  2-C ) :   1.3455 B(  1-C , 10-H ) :   0.9677 B(  2-C ,  3-C ) :   1.3218
B(  2-C , 11-H ) :   0.9688 B(  3-C ,  4-C ) :   1.3323 B(  3-C , 12-H ) :   0.9666
B(  4-C ,  5-C ) :   1.3343 B(  4-C , 13-H ) :   0.9690 B(  5-C , 14-H ) :   0.9688
B(  6-C ,  7-H ) :   0.9687 B(  6-C ,  8-H ) :   0.9607 B(  6-C ,  9-H ) :   0.9607

Dispersion correction           -0.022223946
FINAL SINGLE POINT ENERGY      -271.526673917780

DIPOLE MOMENT
-------------
                                X             Y             Z
Electronic contribution:      0.12192      -3.38329       0.00000
Nuclear contribution   :     -0.14262       3.54029       0.00000
                        -----------------------------------------
Total Dipole Moment    :     -0.02071       0.15699       0.00000
                        -----------------------------------------
Magnitude (a.u.)       :      0.15835
Magnitude (Debye)      :      0.40250

Rotational constants in cm-1:     0.183668     0.083310     0.057937
Rotational constants in MHz :  5506.217857  2497.567370  1736.898663

                             ****ORCA TERMINATED NORMALLY****
TOTAL RUN TIME: 0 days 0 hours 33 minutes 34 seconds 833 msec
