                         Program Version 5.0.4 -  RELEASE  -
|  1> !B3LYP DEF2-TZVPD OPT FREQ D4 SOSCF
|  2>
|  3> %geom maxIter 200 end
|  4>
|  5> * xyz 1 1
|  6>   C   -4.45053934539113      0.58827911034791      0.11423620928836
|  7>   C   -5.24955109747294     -0.57048506587269      0.30033733166211
|  8>   C   -4.67398697160438     -1.81597725344080      0.22682600488263
|  9>   C   -3.30262594633663     -1.94992333703563     -0.02996193478826
| 10>   C   -2.50781585615769     -0.81037689493674     -0.21449672436271
| 11>   C   -3.06212499290892      0.44517971756718     -0.14639051609466
| 12>   H   -6.30822897734123     -0.45959715798819      0.49842924544807
| 13>   H   -5.28369884908577     -2.69807619318315      0.36822740353259
| 14>   H   -2.85720328026128     -2.93369937513414     -0.08581406991248
| 15>   H   -1.45011055237778     -0.92003068457100     -0.41262819875581
| 16>   H   -2.45254395369169      1.32879455620796     -0.28801470514713
| 17>   N   -5.00532207805471      1.81248375437028      0.18480092399762
| 18>   H   -5.98926570417720      1.93191788309718      0.36440400576649
| 19>   H   -4.45540536679638      2.64545374559489      0.05035355243194
| 20>   N   9.75438459628651      4.22221214564049     -1.70665352340670
| 21>   O   10.44023765115048      5.16094439953045     -1.64057885699285
| 22>   O   8.70804072422079      3.78261064980599     -1.44105614754917
| 23> **                         ****END OF INPUT****
 Total Charge           Charge          ....    1
 Multiplicity           Mult            ....    1
 Number of Electrons    NEL             ....   72
Dispersion correction           -0.020501352
FINAL SINGLE POINT ENERGY      -492.335097747678
Dispersion correction            ... Starting D4
Dispersion correction           -0.020501721
FINAL SINGLE POINT ENERGY      -492.335131036693
Dispersion correction            ... Starting D4
Dispersion correction           -0.020502195
FINAL SINGLE POINT ENERGY      -492.335164012332
Dispersion correction            ... Starting D4
FINAL SINGLE POINT ENERGY      -492.335196562474
FINAL SINGLE POINT ENERGY      -492.335228826680
FINAL SINGLE POINT ENERGY      -492.335261114676
FINAL SINGLE POINT ENERGY      -492.335293570815
FINAL SINGLE POINT ENERGY      -492.335326158227
FINAL SINGLE POINT ENERGY      -492.335358733635
FINAL SINGLE POINT ENERGY      -492.335391258864
FINAL SINGLE POINT ENERGY      -492.335423602160
FINAL SINGLE POINT ENERGY      -492.335455812505
Dispersion correction           -0.020506704
FINAL SINGLE POINT ENERGY      -492.335487724827
Dispersion correction            ... Starting D4
Dispersion correction           -0.020507254
FINAL SINGLE POINT ENERGY      -492.335520014662
Dispersion correction            ... Starting D4
                    ***********************HURRAY********************

CARTESIAN COORDINATES (ANGSTROEM)
---------------------------------
  C     -4.722997    0.511471    0.144449
  C     -5.437119   -0.704600    0.307773
  C     -4.770156   -1.903314    0.230311
  C     -3.389529   -1.933394   -0.009947
  C     -2.677980   -0.737078   -0.172630
  C     -3.324665    0.473203   -0.098243
  H     -6.503452   -0.673934    0.492914
  H     -5.314434   -2.829634    0.355040
  H     -2.872899   -2.881439   -0.070702
  H     -1.613040   -0.765895   -0.360022
  H     -2.781350    1.401542   -0.222469
  N     -5.367123    1.690915    0.219738
  H     -6.358933    1.735802    0.389686
  H     -4.877826    2.563607    0.104455
  N     10.739952    4.431453   -1.824039
  O     11.447745    5.354724   -1.777601
  O      9.678046    4.026279   -1.566693

 Multiplicity           Mult            ....    1
 Number of Electrons    NEL             ....   72
 Basis Dimension        Dim             ....  439

ORBITAL ENERGIES
----------------

  NO   OCC          E(Eh)            E(eV)
   0   2.0000     -19.412190      -528.2325
   1   2.0000     -19.411936      -528.2256
   2   2.0000     -14.730668      -400.8418
   3   2.0000     -14.492655      -394.3652
   4   2.0000     -10.371926      -282.2345
   5   2.0000     -10.311455      -280.5889
   6   2.0000     -10.311239      -280.5831
   7   2.0000     -10.310866      -280.5729
   8   2.0000     -10.306111      -280.4435
   9   2.0000     -10.305497      -280.4268
  10   2.0000      -1.459724       -39.7211
  11   2.0000      -1.327426       -36.1211
  12   2.0000      -1.086351       -29.5611
  13   2.0000      -0.978783       -26.6340
  14   2.0000      -0.885869       -24.1057
  15   2.0000      -0.865495       -23.5513
  16   2.0000      -0.812432       -22.1074
  17   2.0000      -0.754698       -20.5364
  18   2.0000      -0.748216       -20.3600
  19   2.0000      -0.739768       -20.1301
  20   2.0000      -0.735076       -20.0024
  21   2.0000      -0.728607       -19.8264
  22   2.0000      -0.672607       -18.3026
  23   2.0000      -0.667819       -18.1723
  24   2.0000      -0.621043       -16.8994
  25   2.0000      -0.572730       -15.5848
  26   2.0000      -0.565837       -15.3972
  27   2.0000      -0.557378       -15.1670
  28   2.0000      -0.542918       -14.7736
  29   2.0000      -0.535866       -14.5817
  30   2.0000      -0.535831       -14.5807
  31   2.0000      -0.495589       -13.4857
  32   2.0000      -0.476607       -12.9691
  33   2.0000      -0.457460       -12.4481
  34   2.0000      -0.391976       -10.6662
  35   2.0000      -0.331467        -9.0197
  36   0.0000      -0.324816        -8.8387
  37   0.0000      -0.225230        -6.1288
  38   0.0000      -0.140121        -3.8129
  39   0.0000      -0.130288        -3.5453
  40   0.0000      -0.104161        -2.8344

MULLIKEN ATOMIC CHARGES
-----------------------
   0 C :    1.225211
   1 C :   -0.462815
   2 C :   -0.453405
   3 C :   -0.359651
   4 C :   -0.448252
   5 C :   -0.459580
   6 H :    0.278004
   7 H :    0.316884
   8 H :    0.342771
   9 H :    0.312559
  10 H :    0.273063
  11 N :   -0.322139
  12 H :    0.195694
  13 H :    0.194293
  14 N :    0.857285
  15 O :   -0.241837
  16 O :   -0.248086
Sum of atomic charges:    1.0000000

LOEWDIN ATOMIC CHARGES
----------------------
   0 C :   -0.272817
   1 C :    0.000566
   2 C :   -0.049355
   3 C :   -0.028664
   4 C :   -0.051723
   5 C :   -0.001208
   6 H :    0.120088
   7 H :    0.117324
   8 H :    0.114733
   9 H :    0.116030
  10 H :    0.118909
  11 N :    0.194857
  12 H :    0.127256
  13 H :    0.126643
  14 N :   -0.134332
  15 O :    0.253721
  16 O :    0.247973

  Mayer bond orders larger than 0.100000
B(  0-C ,  1-C ) :   0.6654 B(  0-C ,  2-C ) :  -0.1120 B(  0-C ,  3-C ) :  -0.1073
B(  0-C ,  4-C ) :  -0.1104 B(  0-C ,  5-C ) :   0.6716 B(  0-C ,  6-H ) :  -0.1490
B(  0-C , 10-H ) :  -0.1491 B(  0-C , 11-N ) :   1.0907 B(  1-C ,  2-C ) :   1.7038
B(  1-C ,  6-H ) :   0.8632 B(  2-C ,  3-C ) :   1.3423 B(  2-C ,  7-H ) :   0.7990
B(  3-C ,  4-C ) :   1.3435 B(  3-C ,  8-H ) :   0.7864 B(  3-C , 14-N ) :   0.1066
B(  4-C ,  5-C ) :   1.6930 B(  4-C ,  9-H ) :   0.8024 B(  5-C , 10-H ) :   0.8678
B( 11-N , 12-H ) :   0.9922 B( 11-N , 13-H ) :   0.9933 B( 11-N , 14-N ) :   0.1082
B( 14-N , 15-O ) :   1.5983 B( 14-N , 16-O ) :   1.5931 B( 15-O , 16-O ) :   0.3057

Dispersion correction           -0.020507177
FINAL SINGLE POINT ENERGY      -492.335520196503

DIPOLE MOMENT
-------------
                                X             Y             Z
Electronic contribution:     33.01563      10.97655      -4.05199
Nuclear contribution   :    -32.40562      -9.86994       3.93422
                        -----------------------------------------
Total Dipole Moment    :      0.61000       1.10661      -0.11778
                        -----------------------------------------
Magnitude (a.u.)       :      1.26908
Magnitude (Debye)      :      3.22574

Dispersion correction in the Hessian             ... Starting D4

VIBRATIONAL FREQUENCIES
-----------------------

Scaling factor for frequencies =  1.000000000  (already applied!)

   0:         0.00 cm**-1
   1:         0.00 cm**-1
   2:         0.00 cm**-1
   3:         0.00 cm**-1
   4:         0.00 cm**-1
   5:         0.00 cm**-1
   6:       -18.85 cm**-1 ***imaginary mode***
   7:       -10.01 cm**-1 ***imaginary mode***
   8:        -7.01 cm**-1 ***imaginary mode***
   9:         4.90 cm**-1
  10:         6.69 cm**-1
  11:        12.42 cm**-1
  12:       198.28 cm**-1
  13:       386.98 cm**-1
  14:       389.00 cm**-1
  15:       423.91 cm**-1
  16:       489.22 cm**-1
  17:       505.19 cm**-1
  18:       532.54 cm**-1
  19:       613.37 cm**-1
  20:       628.19 cm**-1
  21:       659.15 cm**-1
  22:       786.65 cm**-1
  23:       814.75 cm**-1
  24:       834.81 cm**-1
  25:       922.99 cm**-1
  26:      1000.59 cm**-1
  27:      1004.78 cm**-1
  28:      1016.23 cm**-1
  29:      1029.46 cm**-1
  30:      1029.85 cm**-1
  31:      1132.46 cm**-1
  32:      1188.62 cm**-1
  33:      1207.85 cm**-1
  34:      1323.61 cm**-1
  35:      1371.14 cm**-1
  36:      1375.69 cm**-1
  37:      1378.08 cm**-1
  38:      1501.23 cm**-1
  39:      1523.96 cm**-1
  40:      1558.12 cm**-1
  41:      1643.01 cm**-1
  42:      1666.66 cm**-1
  43:      1934.33 cm**-1
  44:      3181.77 cm**-1
  45:      3183.09 cm**-1
  46:      3196.23 cm**-1
  47:      3202.76 cm**-1
  48:      3212.65 cm**-1
  49:      3567.04 cm**-1
  50:      3681.72 cm**-1

IR SPECTRUM
-----------

 Mode   freq       eps      Int      T**2         TX        TY        TZ
       cm**-1   L/(mol*cm) km/mol    a.u.
----------------------------------------------------------------------------
  9:      4.90   0.000000    0.00  0.000000  ( 0.000000  0.000000  0.000000)
 10:      6.69   0.000049    0.25  0.002288  ( 0.029794  0.022644 -0.029798)
 11:     12.42   0.000021    0.11  0.000535  (-0.008298  0.010992 -0.018585)
 12:    198.28   0.001257    6.35  0.001979  ( 0.007472  0.001402  0.043832)
 13:    386.98   0.000376    1.90  0.000303  ( 0.014767  0.008647 -0.003230)
 14:    389.00   0.000006    0.03  0.000005  ( 0.000294  0.000151  0.002243)
 15:    423.91   0.033818  170.90  0.024895  (-0.021399 -0.004145 -0.156268)
 16:    489.22   0.000002    0.01  0.000001  (-0.001014 -0.000085  0.000479)
 17:    505.19   0.000013    0.06  0.000008  (-0.001115 -0.000183 -0.002543)
 18:    532.54   0.164838  833.02  0.096594  (-0.292037 -0.100694  0.034186)
 19:    613.37   0.000002    0.01  0.000001  ( 0.000125  0.000865 -0.000288)
 20:    628.19   1.860064  9400.00  0.924019  (-0.904950 -0.307578  0.102372)
 21:    659.15   0.008211   41.49  0.003887  (-0.011623 -0.002244 -0.061214)
 22:    786.65   0.008457   42.74  0.003355  ( 0.009800  0.001751  0.057060)
 23:    814.75   0.000003    0.01  0.000001  (-0.000307 -0.000098 -0.000959)
 24:    834.81   0.004918   24.86  0.001839  ( 0.037382  0.020408 -0.004971)
 25:    922.99   0.000805    4.07  0.000272  ( 0.002823  0.000552  0.016240)
 26:   1000.59   0.000001    0.01  0.000000  (-0.000564 -0.000093  0.000259)
 27:   1004.78   0.020853  105.38  0.006476  ( 0.078649  0.013951 -0.009804)
 28:   1016.23   0.000036    0.18  0.000011  (-0.001028 -0.000185 -0.003166)
 29:   1029.46   0.000058    0.29  0.000018  ( 0.003343  0.002502 -0.000469)
 30:   1029.85   0.002073   10.47  0.000628  ( 0.019756  0.015217 -0.002484)
 31:   1132.46   0.001196    6.05  0.000330  ( 0.015310  0.009255 -0.003103)
 32:   1188.62   0.000018    0.09  0.000005  ( 0.002121  0.000298 -0.000215)
 33:   1207.85   0.095261  481.41  0.024612  (-0.151750 -0.035073  0.018811)
 34:   1323.61   2.293926  11592.56  0.540831  (-0.698601 -0.212721  0.086818)
 35:   1371.14   0.000044    0.22  0.000010  (-0.002512 -0.001865  0.000449)
 36:   1375.69   0.000521    2.63  0.000118  ( 0.007623  0.007656 -0.001233)
 37:   1378.08   0.003859   19.50  0.000874  (-0.013470 -0.026253  0.001769)
 38:   1501.23   0.001077    5.44  0.000224  ( 0.012700  0.007509 -0.002483)
 39:   1523.96   0.038506  194.59  0.007885  ( 0.080342 -0.036552 -0.009692)
 40:   1558.12   0.000513    2.59  0.000103  ( 0.008779  0.004774 -0.001720)
 41:   1643.01   0.090484  457.27  0.017186  ( 0.122444  0.044333 -0.015106)
 42:   1666.66   0.097514  492.80  0.018258  (-0.130675  0.030571  0.015747)
 43:   1934.33   0.072665  367.22  0.011723  ( 0.085620  0.065476 -0.010252)
 44:   3181.77   0.001236    6.25  0.000121  ( 0.010154 -0.004079 -0.001216)
 45:   3183.09   0.000414    2.09  0.000041  (-0.006083  0.001721  0.000782)
 46:   3196.23   0.002998   15.15  0.000293  ( 0.016806  0.002507 -0.002003)
 47:   3202.76   0.000078    0.40  0.000008  (-0.002556 -0.000924  0.000481)
 48:   3212.65   0.001238    6.26  0.000120  ( 0.009762  0.004854 -0.001199)
 49:   3567.04   0.194973  985.31  0.017057  ( 0.129137 -0.011615 -0.015685)
 50:   3681.72   0.011290   57.05  0.000957  (-0.026301 -0.015410  0.005265)

--------------------------
THERMOCHEMISTRY AT 298.15K
--------------------------

Temperature         ... 298.15 K
Pressure            ... 1.00 atm
Total Mass          ... 139.13 AMU

Throughout the following assumptions are being made:
  (1) The electronic state is orbitally nondegenerate
  (2) There are no thermally accessible electronically excited states
  (3) Hindered rotations indicated by low frequency modes are not
      treated as such but are treated as vibrations and this may
      cause some error
  (4) All equations used are the standard statistical mechanics
      equations for an ideal gas
  (5) All vibrations are strictly harmonic

freq.       4.90  E(vib)   ...       0.59
freq.       6.69  E(vib)   ...       0.58
freq.      12.42  E(vib)   ...       0.57
freq.     198.28  E(vib)   ...       0.35
freq.     386.98  E(vib)   ...       0.20
freq.     389.00  E(vib)   ...       0.20
freq.     423.91  E(vib)   ...       0.18
freq.     489.22  E(vib)   ...       0.15
freq.     505.19  E(vib)   ...       0.14
freq.     532.54  E(vib)   ...       0.13
freq.     613.37  E(vib)   ...       0.10
freq.     628.19  E(vib)   ...       0.09
freq.     659.15  E(vib)   ...       0.08
freq.     786.65  E(vib)   ...       0.05
freq.     814.75  E(vib)   ...       0.05
freq.     834.81  E(vib)   ...       0.04
freq.     922.99  E(vib)   ...       0.03
freq.    1000.59  E(vib)   ...       0.02
freq.    1004.78  E(vib)   ...       0.02
freq.    1016.23  E(vib)   ...       0.02
freq.    1029.46  E(vib)   ...       0.02
freq.    1029.85  E(vib)   ...       0.02
freq.    1132.46  E(vib)   ...       0.01
freq.    1188.62  E(vib)   ...       0.01
freq.    1207.85  E(vib)   ...       0.01
freq.    1323.61  E(vib)   ...       0.01
freq.    1371.14  E(vib)   ...       0.01
freq.    1375.69  E(vib)   ...       0.01
freq.    1378.08  E(vib)   ...       0.01
freq.    1501.23  E(vib)   ...       0.00
freq.    1523.96  E(vib)   ...       0.00
freq.    1558.12  E(vib)   ...       0.00
freq.    1643.01  E(vib)   ...       0.00
freq.    1666.66  E(vib)   ...       0.00
freq.    1934.33  E(vib)   ...       0.00
freq.    3181.77  E(vib)   ...       0.00
freq.    3183.09  E(vib)   ...       0.00
freq.    3196.23  E(vib)   ...       0.00
freq.    3202.76  E(vib)   ...       0.00
freq.    3212.65  E(vib)   ...       0.00
freq.    3567.04  E(vib)   ...       0.00
freq.    3681.72  E(vib)   ...       0.00

------------
INNER ENERGY
------------

The inner energy is: U= E(el) + E(ZPE) + E(vib) + E(rot) + E(trans)
    E(el)   - is the total energy from the electronic structure calculation
              = E(kin-el) + E(nuc-el) + E(el-el) + E(nuc-nuc)
    E(ZPE)  - the the zero temperature vibrational energy from the frequency calculation
    E(vib)  - the the finite temperature correction to E(ZPE) due to population
              of excited vibrational states
    E(rot)  - is the rotational thermal energy
    E(trans)- is the translational thermal energy

Summary of contributions to the inner energy U:
Electronic energy                ...   -492.33552020 Eh
Zero point energy                ...      0.12602813 Eh      79.08 kcal/mol
Thermal vibrational correction   ...      0.00591087 Eh       3.71 kcal/mol
Thermal rotational correction    ...      0.00141627 Eh       0.89 kcal/mol
Thermal translational correction ...      0.00141627 Eh       0.89 kcal/mol
-----------------------------------------------------------------------
Total thermal energy                   -492.20074865 Eh

Summary of corrections to the electronic energy:
(perhaps to be used in another calculation)
Total thermal correction                  0.00874342 Eh       5.49 kcal/mol
Non-thermal (ZPE) correction              0.12602813 Eh      79.08 kcal/mol
-----------------------------------------------------------------------
Total correction                          0.13477155 Eh      84.57 kcal/mol

--------
ENTHALPY
--------

The enthalpy is H = U + kB*T
                kB is Boltzmann's constant
Total free energy                 ...   -492.20074865 Eh
Thermal Enthalpy correction       ...      0.00094421 Eh       0.59 kcal/mol
-----------------------------------------------------------------------
Total Enthalpy                    ...   -492.19980444 Eh

Note: Only C1 symmetry has been detected, increase convergence thresholds
      if your molecule has a higher symmetry. Symmetry factor of 1.0 is
      used for the rotational entropy correction.

Note: Rotational entropy computed according to Herzberg
Infrared and Raman Spectra, Chapter V,1, Van Nostrand Reinhold, 1945
Point Group:  C1, Symmetry Number:   1
Rotational constants in cm-1:     0.088046     0.002160     0.002108

Vibrational entropy computed according to the QRRHO of S. Grimme
Chem.Eur.J. 2012 18 9955

-------
ENTROPY
-------

The entropy contributions are T*S = T*(S(el)+S(vib)+S(rot)+S(trans))
     S(el)   - electronic entropy
     S(vib)  - vibrational entropy
     S(rot)  - rotational entropy
     S(trans)- translational entropy
The entropies will be listed as multiplied by the temperature to get
units of energy

Electronic entropy                ...      0.00000000 Eh      0.00 kcal/mol
Vibrational entropy               ...      0.01231070 Eh      7.73 kcal/mol
Rotational entropy                ...      0.01646453 Eh     10.33 kcal/mol
Translational entropy             ...      0.01933899 Eh     12.14 kcal/mol
-----------------------------------------------------------------------
Final entropy term                ...      0.04811422 Eh     30.19 kcal/mol

In case the symmetry of your molecule has not been determined correctly
or in case you have a reason to use a different symmetry number we print
out the resulting rotational entropy values for sn=1,12 :
 --------------------------------------------------------
|  sn= 1 | S(rot)=       0.01646453 Eh     10.33 kcal/mol|
|  sn= 2 | S(rot)=       0.01581007 Eh      9.92 kcal/mol|
|  sn= 3 | S(rot)=       0.01542724 Eh      9.68 kcal/mol|
|  sn= 4 | S(rot)=       0.01515562 Eh      9.51 kcal/mol|
|  sn= 5 | S(rot)=       0.01494493 Eh      9.38 kcal/mol|
|  sn= 6 | S(rot)=       0.01477279 Eh      9.27 kcal/mol|
|  sn= 7 | S(rot)=       0.01462724 Eh      9.18 kcal/mol|
|  sn= 8 | S(rot)=       0.01450116 Eh      9.10 kcal/mol|
|  sn= 9 | S(rot)=       0.01438995 Eh      9.03 kcal/mol|
|  sn=10 | S(rot)=       0.01429047 Eh      8.97 kcal/mol|
|  sn=11 | S(rot)=       0.01420048 Eh      8.91 kcal/mol|
|  sn=12 | S(rot)=       0.01411833 Eh      8.86 kcal/mol|
 --------------------------------------------------------

-------------------
GIBBS FREE ENERGY
-------------------

The Gibbs free energy is G = H - T*S

                             ****ORCA TERMINATED NORMALLY****
TOTAL RUN TIME: 0 days 4 hours 15 minutes 50 seconds 29 msec
