                         Program Version 5.0.4 -  RELEASE  -
|  1> !B3LYP DEF2-TZVP D3BJ OPT FREQ SOSCF
|  2>
|  3> %geom
|  4> convergence tight
|  5> maxIter 1000
|  6> end
|  7>
|  8> * xyz 1 1
|  9>   C   -5.58920117172344      0.76032024925136      4.35377056151442
| 10>   C   -6.17627399218913      1.50723782185970      3.31167629278556
| 11>   C   -6.19149281404421      1.02506699619361      2.01977083925576
| 12>   C   -5.61588631883498     -0.21899466387013      1.73124143784200
| 13>   C   -5.03947435728520     -0.97745097599623      2.75570308847712
| 14>   C   -5.02962182773804     -0.49281006334661      4.04985796376316
| 15>   C   -5.55028377043875      1.30450761925183      5.74249784986873
| 16>   H   -5.31436526158258      0.53341539856584      6.47371220749810
| 17>   H   -6.50042475837673      1.77165560202254      6.01057790708862
| 18>   H   -4.78475147593653      2.08524372750741      5.82034769430898
| 19>   H   -6.62353207129577      2.46751059729523      3.53613109392918
| 20>   H   -6.67026029675231      1.59135558179473      1.23152902139801
| 21>   H   -5.58555891807941     -0.56655461927293      0.70737742154302
| 22>   H   -4.59913001534369     -1.94085524416557      2.53650706880280
| 23>   H   -4.58471223965891     -1.08040618472230      4.84241504065205
| 24>   N   -10.84740920007235     -2.10473171290756    -25.66181114935455
| 25>   O   -10.53302363700431     -1.92988324899868    -24.57326763950300
| 26>   O   -10.90865312077074     -2.71734024380572    -26.62759987232879
| 27> **                         ****END OF INPUT****
 Total Charge           Charge          ....    1
 Multiplicity           Mult            ....    1
 Number of Electrons    NEL             ....   72
Dispersion correction           -0.025787891
FINAL SINGLE POINT ENERGY      -476.268158721510
Dispersion correction            ... done
Dispersion correction           -0.025784137
FINAL SINGLE POINT ENERGY      -476.268396850715
Dispersion correction            ... done
Dispersion correction           -0.025782944
FINAL SINGLE POINT ENERGY      -476.268523853920
Dispersion correction            ... done
FINAL SINGLE POINT ENERGY      -476.268596069301
FINAL SINGLE POINT ENERGY      -476.268633336177
FINAL SINGLE POINT ENERGY      -476.268652420045
FINAL SINGLE POINT ENERGY      -476.268668620588
FINAL SINGLE POINT ENERGY      -476.268681763900
FINAL SINGLE POINT ENERGY      -476.268692070064
FINAL SINGLE POINT ENERGY      -476.268701131286
FINAL SINGLE POINT ENERGY      -476.268735005657
FINAL SINGLE POINT ENERGY      -476.268735334081
FINAL SINGLE POINT ENERGY      -476.268736572433
FINAL SINGLE POINT ENERGY      -476.268737615315
FINAL SINGLE POINT ENERGY      -476.268738679034
FINAL SINGLE POINT ENERGY      -476.268738767102
FINAL SINGLE POINT ENERGY      -476.268738582220
Dispersion correction           -0.025785349
FINAL SINGLE POINT ENERGY      -476.268738638100
Dispersion correction            ... done
Dispersion correction           -0.025785335
FINAL SINGLE POINT ENERGY      -476.268738738531
Dispersion correction            ... done
                    ***********************HURRAY********************

CARTESIAN COORDINATES (ANGSTROEM)
---------------------------------
  C     -5.585744    0.783968    4.533334
  C     -6.115978    1.517203    3.445003
  C     -6.059888    1.015859    2.164144
  C     -5.472390   -0.235649    1.930801
  C     -4.943587   -0.977477    2.998432
  C     -5.000933   -0.474195    4.279925
  C     -5.629599    1.347284    5.909739
  H     -5.425301    0.593266    6.667889
  H     -6.594272    1.817070    6.115680
  H     -4.875664    2.138384    6.013966
  H     -6.569332    2.482110    3.633707
  H     -6.468145    1.580938    1.337187
  H     -5.427321   -0.631785    0.924979
  H     -4.494696   -1.943488    2.810795
  H     -4.597135   -1.042512    5.107734
  N    -11.066704   -2.166502  -26.581155
  O    -10.764882   -1.996417  -25.480750
  O    -11.052484   -2.790771  -27.550973

 Multiplicity           Mult            ....    1
 Number of Electrons    NEL             ....   72
 Basis Dimension        Dim             ....  358

ORBITAL ENERGIES
----------------

  NO   OCC          E(Eh)            E(eV)
   0   2.0000     -19.459381      -529.5167
   1   2.0000     -19.459324      -529.5151
   2   2.0000     -14.778866      -402.1534
   3   2.0000     -10.309521      -280.5363
   4   2.0000     -10.296102      -280.1712
   5   2.0000     -10.283355      -279.8243
   6   2.0000     -10.283158      -279.8190
   7   2.0000     -10.281763      -279.7810
   8   2.0000     -10.281411      -279.7714
   9   2.0000     -10.263606      -279.2869
  10   2.0000      -1.509048       -41.0633
  11   2.0000      -1.384752       -37.6810
  12   2.0000      -0.969922       -26.3929
  13   2.0000      -0.882218       -24.0064
  14   2.0000      -0.857244       -23.3268
  15   2.0000      -0.849200       -23.1079
  16   2.0000      -0.789856       -21.4931
  17   2.0000      -0.787165       -21.4199
  18   2.0000      -0.783326       -21.3154
  19   2.0000      -0.770089       -20.9552
  20   2.0000      -0.713520       -19.4159
  21   2.0000      -0.692292       -18.8382
  22   2.0000      -0.618969       -16.8430
  23   2.0000      -0.585575       -15.9343
  24   2.0000      -0.580826       -15.8051
  25   2.0000      -0.572222       -15.5709
  26   2.0000      -0.558927       -15.2092
  27   2.0000      -0.530198       -14.4274
  28   2.0000      -0.521683       -14.1957
  29   2.0000      -0.515709       -14.0331
  30   2.0000      -0.486314       -13.2333
  31   2.0000      -0.462468       -12.5844
  32   2.0000      -0.453585       -12.3427
  33   2.0000      -0.445774       -12.1301
  34   2.0000      -0.365614        -9.9489
  35   2.0000      -0.341831        -9.3017
  36   0.0000      -0.338372        -9.2076
  37   0.0000      -0.258788        -7.0420
  38   0.0000      -0.121384        -3.3030
  39   0.0000      -0.114015        -3.1025
  40   0.0000      -0.055834        -1.5193

MULLIKEN ATOMIC CHARGES
-----------------------
   0 C :    0.186459
   1 C :   -0.147318
   2 C :   -0.084628
   3 C :   -0.064245
   4 C :   -0.082722
   5 C :   -0.153372
   6 C :   -0.345497
   7 H :    0.137953
   8 H :    0.146722
   9 H :    0.156656
  10 H :    0.143725
  11 H :    0.145688
  12 H :    0.153844
  13 H :    0.147076
  14 H :    0.141340
  15 N :    0.572648
  16 O :   -0.027845
  17 O :   -0.026483
Sum of atomic charges:    1.0000000

LOEWDIN ATOMIC CHARGES
----------------------
   0 C :   -0.096575
   1 C :   -0.070656
   2 C :   -0.104558
   3 C :   -0.055085
   4 C :   -0.098675
   5 C :   -0.077649
   6 C :   -0.226869
   7 H :    0.136207
   8 H :    0.143783
   9 H :    0.153226
  10 H :    0.156741
  11 H :    0.155145
  12 H :    0.155147
  13 H :    0.155439
  14 H :    0.156058
  15 N :    0.023947
  16 O :    0.246505
  17 O :    0.247869

  Mayer bond orders larger than 0.100000
B(  0-C ,  1-C ) :   1.2440 B(  0-C ,  5-C ) :   1.2844 B(  0-C ,  6-C ) :   0.9425
B(  0-C , 15-N ) :   0.1060 B(  1-C ,  2-C ) :   1.4938 B(  1-C , 10-H ) :   0.9618
B(  2-C ,  3-C ) :   1.3190 B(  2-C , 11-H ) :   0.9586 B(  3-C ,  4-C ) :   1.3117
B(  3-C , 12-H ) :   0.9528 B(  3-C , 15-N ) :   0.1138 B(  4-C ,  5-C ) :   1.4884
B(  4-C , 13-H ) :   0.9578 B(  5-C , 14-H ) :   0.9558 B(  6-C ,  7-H ) :   0.9830
B(  6-C ,  8-H ) :   0.9601 B(  6-C ,  9-H ) :   0.9262 B( 15-N , 16-O ) :   1.8266
B( 15-N , 17-O ) :   1.8280 B( 16-O , 17-O ) :   0.3426

Dispersion correction           -0.025785315
FINAL SINGLE POINT ENERGY      -476.268738832262

DIPOLE MOMENT
-------------
                                X             Y             Z
Electronic contribution:    -15.24443      -9.05700     -88.46662
Nuclear contribution   :     13.31494       8.21298      77.94364
                        -----------------------------------------
Total Dipole Moment    :     -1.92949      -0.84402     -10.52298
                        -----------------------------------------
Magnitude (a.u.)       :     10.73166
Magnitude (Debye)      :     27.27770

Dispersion correction in the Hessian             ... done   (     19.9 sec)

VIBRATIONAL FREQUENCIES
-----------------------

Scaling factor for frequencies =  1.000000000  (already applied!)

   0:         0.00 cm**-1
   1:         0.00 cm**-1
   2:         0.00 cm**-1
   3:         0.00 cm**-1
   4:         0.00 cm**-1
   5:         0.00 cm**-1
   6:       -13.23 cm**-1 ***imaginary mode***
   7:        -4.90 cm**-1 ***imaginary mode***
   8:        -4.49 cm**-1 ***imaginary mode***
   9:         4.05 cm**-1
  10:         6.83 cm**-1
  11:        10.11 cm**-1
  12:        13.84 cm**-1
  13:       184.98 cm**-1
  14:       347.62 cm**-1
  15:       385.27 cm**-1
  16:       449.09 cm**-1
  17:       519.90 cm**-1
  18:       562.74 cm**-1
  19:       567.30 cm**-1
  20:       646.86 cm**-1
  21:       753.79 cm**-1
  22:       796.24 cm**-1
  23:       827.91 cm**-1
  24:       929.30 cm**-1
  25:       990.87 cm**-1
  26:       993.12 cm**-1
  27:      1008.67 cm**-1
  28:      1016.41 cm**-1
  29:      1030.60 cm**-1
  30:      1035.21 cm**-1
  31:      1107.18 cm**-1
  32:      1171.42 cm**-1
  33:      1211.76 cm**-1
  34:      1246.35 cm**-1
  35:      1324.43 cm**-1
  36:      1331.28 cm**-1
  37:      1371.04 cm**-1
  38:      1394.17 cm**-1
  39:      1426.02 cm**-1
  40:      1459.16 cm**-1
  41:      1480.96 cm**-1
  42:      1506.38 cm**-1
  43:      1521.64 cm**-1
  44:      1656.48 cm**-1
  45:      2055.06 cm**-1
  46:      2999.10 cm**-1
  47:      3062.01 cm**-1
  48:      3125.37 cm**-1
  49:      3181.50 cm**-1
  50:      3184.78 cm**-1
  51:      3192.94 cm**-1
  52:      3201.64 cm**-1
  53:      3208.98 cm**-1

IR SPECTRUM
-----------

 Mode   freq       eps      Int      T**2         TX        TY        TZ
       cm**-1   L/(mol*cm) km/mol    a.u.
----------------------------------------------------------------------------
  9:      4.05   0.000000    0.00  0.000000  ( 0.000000  0.000000  0.000000)
 10:      6.83   0.000133    0.67  0.006099  (-0.071498  0.031277  0.003044)
 11:     10.11   0.000102    0.52  0.003157  ( 0.045879  0.026441  0.018781)
 12:     13.84   0.000295    1.49  0.006651  ( 0.069339  0.041086 -0.012444)
 13:    184.98   0.000356    1.80  0.000601  ( 0.021499  0.011699  0.001412)
 14:    347.62   0.002687   13.58  0.002412  (-0.005856 -0.011222 -0.047455)
 15:    385.27   0.000008    0.04  0.000006  ( 0.000279  0.001699  0.001804)
 16:    449.09   0.005977   30.21  0.004153  ( 0.028965  0.015408  0.055471)
 17:    519.90   1.173442  5930.10  0.704340  (-0.144896 -0.079521 -0.822813)
 18:    562.74   3.619668  18292.32  2.007267  ( 0.240935  0.143408  1.388759)
 19:    567.30   3.323015  16793.16  1.827939  ( 0.232193  0.131709  1.325398)
 20:    646.86   0.005645   28.53  0.002723  ( 0.045195  0.023165 -0.011999)
 21:    753.79   0.008892   44.94  0.003681  (-0.053040 -0.024249  0.016729)
 22:    796.24   0.021162  106.95  0.008294  (-0.011958 -0.000405 -0.090282)
 23:    827.91   0.000019    0.10  0.000007  ( 0.001241  0.000877 -0.002197)
 24:    929.30   0.006635   33.53  0.002228  ( 0.004027  0.004053  0.046854)
 25:    990.87   0.003465   17.51  0.001091  ( 0.005241  0.004127  0.032353)
 26:    993.12   0.052636  266.00  0.016540  ( 0.021318  0.015557  0.125869)
 27:   1008.67   0.002714   13.71  0.000840  (-0.009785 -0.005701 -0.026670)
 28:   1016.41   0.090185  455.76  0.027689  (-0.033533 -0.015351 -0.162262)
 29:   1030.60   0.000677    3.42  0.000205  ( 0.007454  0.010578  0.006129)
 30:   1035.21   0.032450  163.99  0.009782  ( 0.030732  0.018441  0.092182)
 31:   1107.18   0.002847   14.39  0.000802  (-0.005200  0.020285  0.019077)
 32:   1171.42   0.007269   36.73  0.001936  ( 0.006929  0.005184  0.043145)
 33:   1211.76   0.492339  2488.08  0.126792  ( 0.062007  0.034216  0.348965)
 34:   1246.35   0.318294  1608.53  0.079695  (-0.047432 -0.033315 -0.276289)
 35:   1324.43   1.058942  5351.46  0.249508  (-0.083881 -0.053457 -0.489504)
 36:   1331.28   6.354535  32113.21  1.489559  ( 0.219676  0.102606  1.196149)
 37:   1371.04   0.001995   10.08  0.000454  ( 0.009290 -0.013144  0.013965)
 38:   1394.17   0.005807   29.35  0.001300  (-0.003481 -0.020485 -0.029464)
 39:   1426.02   0.000205    1.03  0.000045  (-0.000222  0.006336 -0.002143)
 40:   1459.16   0.002494   12.60  0.000533  ( 0.020775 -0.005878  0.008198)
 41:   1480.96   0.020237  102.27  0.004264  ( 0.013959  0.024972  0.058701)
 42:   1506.38   0.033496  169.28  0.006939  ( 0.002099  0.023685  0.079836)
 43:   1521.64   0.002038   10.30  0.000418  ( 0.008661 -0.018332  0.002609)
 44:   1656.48   0.747227  3776.18  0.140770  ( 0.065056  0.035769  0.367775)
 45:   2055.06   0.072415  365.96  0.010996  (-0.013381 -0.037745 -0.096916)
 46:   2999.10   0.110196  556.89  0.011466  (-0.016009 -0.012234 -0.105168)
 47:   3062.01   0.000786    3.97  0.000080  (-0.003791  0.000962  0.008052)
 48:   3125.37   0.024958  126.13  0.002492  (-0.009670  0.000504 -0.048972)
 49:   3181.50   0.005473   27.66  0.000537  (-0.002332 -0.004954 -0.022513)
 50:   3184.78   0.001575    7.96  0.000154  (-0.002600  0.000251 -0.012147)
 51:   3192.94   0.012103   61.16  0.001183  (-0.004923 -0.004610 -0.033726)
 52:   3201.64   0.000462    2.33  0.000045  (-0.003049  0.005035 -0.003219)
 53:   3208.98   0.017265   87.25  0.001679  (-0.008420 -0.001896 -0.040056)

--------------------------
THERMOCHEMISTRY AT 298.15K
--------------------------

Temperature         ... 298.15 K
Pressure            ... 1.00 atm
Total Mass          ... 138.15 AMU

Throughout the following assumptions are being made:
  (1) The electronic state is orbitally nondegenerate
  (2) There are no thermally accessible electronically excited states
  (3) Hindered rotations indicated by low frequency modes are not
      treated as such but are treated as vibrations and this may
      cause some error
  (4) All equations used are the standard statistical mechanics
      equations for an ideal gas
  (5) All vibrations are strictly harmonic

freq.       4.05  E(vib)   ...       0.59
freq.       6.83  E(vib)   ...       0.58
freq.      10.11  E(vib)   ...       0.58
freq.      13.84  E(vib)   ...       0.57
freq.     184.98  E(vib)   ...       0.37
freq.     347.62  E(vib)   ...       0.23
freq.     385.27  E(vib)   ...       0.20
freq.     449.09  E(vib)   ...       0.17
freq.     519.90  E(vib)   ...       0.13
freq.     562.74  E(vib)   ...       0.11
freq.     567.30  E(vib)   ...       0.11
freq.     646.86  E(vib)   ...       0.09
freq.     753.79  E(vib)   ...       0.06
freq.     796.24  E(vib)   ...       0.05
freq.     827.91  E(vib)   ...       0.04
freq.     929.30  E(vib)   ...       0.03
freq.     990.87  E(vib)   ...       0.02
freq.     993.12  E(vib)   ...       0.02
freq.    1008.67  E(vib)   ...       0.02
freq.    1016.41  E(vib)   ...       0.02
freq.    1030.60  E(vib)   ...       0.02
freq.    1035.21  E(vib)   ...       0.02
freq.    1107.18  E(vib)   ...       0.02
freq.    1171.42  E(vib)   ...       0.01
freq.    1211.76  E(vib)   ...       0.01
freq.    1246.35  E(vib)   ...       0.01
freq.    1324.43  E(vib)   ...       0.01
freq.    1331.28  E(vib)   ...       0.01
freq.    1371.04  E(vib)   ...       0.01
freq.    1394.17  E(vib)   ...       0.00
freq.    1426.02  E(vib)   ...       0.00
freq.    1459.16  E(vib)   ...       0.00
freq.    1480.96  E(vib)   ...       0.00
freq.    1506.38  E(vib)   ...       0.00
freq.    1521.64  E(vib)   ...       0.00
freq.    1656.48  E(vib)   ...       0.00
freq.    2055.06  E(vib)   ...       0.00
freq.    2999.10  E(vib)   ...       0.00
freq.    3062.01  E(vib)   ...       0.00
freq.    3125.37  E(vib)   ...       0.00
freq.    3181.50  E(vib)   ...       0.00
freq.    3184.78  E(vib)   ...       0.00
freq.    3192.94  E(vib)   ...       0.00
freq.    3201.64  E(vib)   ...       0.00
freq.    3208.98  E(vib)   ...       0.00

------------
INNER ENERGY
------------

The inner energy is: U= E(el) + E(ZPE) + E(vib) + E(rot) + E(trans)
    E(el)   - is the total energy from the electronic structure calculation
              = E(kin-el) + E(nuc-el) + E(el-el) + E(nuc-nuc)
    E(ZPE)  - the the zero temperature vibrational energy from the frequency calculation
    E(vib)  - the the finite temperature correction to E(ZPE) due to population
              of excited vibrational states
    E(rot)  - is the rotational thermal energy
    E(trans)- is the translational thermal energy

Summary of contributions to the inner energy U:
Electronic energy                ...   -476.26873883 Eh
Zero point energy                ...      0.13555178 Eh      85.06 kcal/mol
Thermal vibrational correction   ...      0.00658320 Eh       4.13 kcal/mol
Thermal rotational correction    ...      0.00141627 Eh       0.89 kcal/mol
Thermal translational correction ...      0.00141627 Eh       0.89 kcal/mol
-----------------------------------------------------------------------
Total thermal energy                   -476.12377131 Eh

Summary of corrections to the electronic energy:
(perhaps to be used in another calculation)
Total thermal correction                  0.00941574 Eh       5.91 kcal/mol
Non-thermal (ZPE) correction              0.13555178 Eh      85.06 kcal/mol
-----------------------------------------------------------------------
Total correction                          0.14496753 Eh      90.97 kcal/mol

--------
ENTHALPY
--------

The enthalpy is H = U + kB*T
                kB is Boltzmann's constant
Total free energy                 ...   -476.12377131 Eh
Thermal Enthalpy correction       ...      0.00094421 Eh       0.59 kcal/mol
-----------------------------------------------------------------------
Total Enthalpy                    ...   -476.12282710 Eh

Note: Only C1 symmetry has been detected, increase convergence thresholds
      if your molecule has a higher symmetry. Symmetry factor of 1.0 is
      used for the rotational entropy correction.

Note: Rotational entropy computed according to Herzberg
Infrared and Raman Spectra, Chapter V,1, Van Nostrand Reinhold, 1945
Point Group:  C1, Symmetry Number:   1
Rotational constants in cm-1:     0.153835     0.000575     0.000573

Vibrational entropy computed according to the QRRHO of S. Grimme
Chem.Eur.J. 2012 18 9955

-------
ENTROPY
-------

The entropy contributions are T*S = T*(S(el)+S(vib)+S(rot)+S(trans))
     S(el)   - electronic entropy
     S(vib)  - vibrational entropy
     S(rot)  - rotational entropy
     S(trans)- translational entropy
The entropies will be listed as multiplied by the temperature to get
units of energy

Electronic entropy                ...      0.00000000 Eh      0.00 kcal/mol
Vibrational entropy               ...      0.01446972 Eh      9.08 kcal/mol
Rotational entropy                ...      0.01744076 Eh     10.94 kcal/mol
Translational entropy             ...      0.01932890 Eh     12.13 kcal/mol
-----------------------------------------------------------------------
Final entropy term                ...      0.05123937 Eh     32.15 kcal/mol

In case the symmetry of your molecule has not been determined correctly
or in case you have a reason to use a different symmetry number we print
out the resulting rotational entropy values for sn=1,12 :
 --------------------------------------------------------
|  sn= 1 | S(rot)=       0.01744076 Eh     10.94 kcal/mol|
|  sn= 2 | S(rot)=       0.01678630 Eh     10.53 kcal/mol|
|  sn= 3 | S(rot)=       0.01640347 Eh     10.29 kcal/mol|
|  sn= 4 | S(rot)=       0.01613184 Eh     10.12 kcal/mol|
|  sn= 5 | S(rot)=       0.01592116 Eh      9.99 kcal/mol|
|  sn= 6 | S(rot)=       0.01574901 Eh      9.88 kcal/mol|
|  sn= 7 | S(rot)=       0.01560346 Eh      9.79 kcal/mol|
|  sn= 8 | S(rot)=       0.01547739 Eh      9.71 kcal/mol|
|  sn= 9 | S(rot)=       0.01536618 Eh      9.64 kcal/mol|
|  sn=10 | S(rot)=       0.01526670 Eh      9.58 kcal/mol|
|  sn=11 | S(rot)=       0.01517671 Eh      9.52 kcal/mol|
|  sn=12 | S(rot)=       0.01509455 Eh      9.47 kcal/mol|
 --------------------------------------------------------

-------------------
GIBBS FREE ENERGY
-------------------

                             ****ORCA TERMINATED NORMALLY****
TOTAL RUN TIME: 0 days 18 hours 42 minutes 14 seconds 547 msec
