                         Program Version 5.0.4 -  RELEASE  -
|  1> !B3LYP DEF2-QZVPP
|  2>
|  3> %scf
|  4> convergence tight
|  5> end
|  6>
|  7> * xyz 0 1
|  8>   C   -5.45725684070453      1.95593336212858     -0.00001817707546
|  9>   C   -6.54811022711722      1.08628615246483     -0.00001324749663
| 10>   C   -6.30396401004928     -0.28759056034773     -0.00000139831282
| 11>   C   -4.98984572580346     -0.76859455452417      0.00000695999258
| 12>   C   -3.91114170937565      0.12282314461918     -0.00000121662840
| 13>   C   -4.13915123157836      1.49943411470939     -0.00001304778994
| 14>   H   -7.55740354307554      1.49667400814645     -0.00001684062526
| 15>   H   -7.14404322624445     -0.98601755880687      0.00000397226961
| 16>   H   -4.80509894481999     -1.84567629943337      0.00002057733944
| 17>   H   -2.88642805442052     -0.25584437271434      0.00000437523983
| 18>   H   -3.32449720747170      2.22296833592123     -0.00001644865895
| 19>   N   -5.70656998714359      3.41332965011033     -0.00000742911383
| 20>   O   -6.86822400877657      3.78641654026404      0.00002696429634
| 21>   O   -4.73500528341910      4.15158803746246      0.00002495656351
| 22> **                         ****END OF INPUT****

CARTESIAN COORDINATES (ANGSTROEM)
---------------------------------
  C     -5.457257    1.955933   -0.000018
  C     -6.548110    1.086286   -0.000013
  C     -6.303964   -0.287591   -0.000001
  C     -4.989846   -0.768595    0.000007
  C     -3.911142    0.122823   -0.000001
  C     -4.139151    1.499434   -0.000013
  H     -7.557404    1.496674   -0.000017
  H     -7.144043   -0.986018    0.000004
  H     -4.805099   -1.845676    0.000021
  H     -2.886428   -0.255844    0.000004
  H     -3.324497    2.222968   -0.000016
  N     -5.706570    3.413330   -0.000007
  O     -6.868224    3.786417    0.000027
  O     -4.735005    4.151588    0.000025

 Total Charge           Charge          ....    0
 Multiplicity           Mult            ....    1
 Number of Electrons    NEL             ....   64
 Basis Dimension        Dim             ....  663

ORBITAL ENERGIES
----------------

  NO   OCC          E(Eh)            E(eV)
   0   2.0000     -19.164142      -521.4828
   1   2.0000     -19.164111      -521.4820
   2   2.0000     -14.559557      -396.1857
   3   2.0000     -10.248165      -278.8668
   4   2.0000     -10.213346      -277.9193
   5   2.0000     -10.213289      -277.9177
   6   2.0000     -10.212381      -277.8930
   7   2.0000     -10.209634      -277.8183
   8   2.0000     -10.209574      -277.8166
   9   2.0000      -1.238369       -33.6977
  10   2.0000      -1.065100       -28.9828
  11   2.0000      -0.896008       -24.3816
  12   2.0000      -0.812403       -22.1066
  13   2.0000      -0.778668       -21.1886
  14   2.0000      -0.707650       -19.2561
  15   2.0000      -0.638176       -17.3656
  16   2.0000      -0.603620       -16.4253
  17   2.0000      -0.571238       -15.5442
  18   2.0000      -0.545074       -14.8322
  19   2.0000      -0.523515       -14.2456
  20   2.0000      -0.516893       -14.0654
  21   2.0000      -0.479807       -13.0562
  22   2.0000      -0.471223       -12.8226
  23   2.0000      -0.453710       -12.3461
  24   2.0000      -0.399875       -10.8812
  25   2.0000      -0.396007       -10.7759
  26   2.0000      -0.377580       -10.2745
  27   2.0000      -0.324304        -8.8248
  28   2.0000      -0.319634        -8.6977
  29   2.0000      -0.304441        -8.2843
  30   2.0000      -0.291323        -7.9273
  31   2.0000      -0.286691        -7.8013
  32   0.0000      -0.100175        -2.7259
  33   0.0000      -0.042945        -1.1686
  34   0.0000      -0.014914        -0.4058
  35   0.0000       0.011673         0.3176
  36   0.0000       0.037174         1.0116

MULLIKEN ATOMIC CHARGES
-----------------------
   0 C :    0.056030
   1 C :   -0.004947
   2 C :   -0.061954
   3 C :   -0.063085
   4 C :   -0.059096
   5 C :   -0.005646
   6 H :    0.097991
   7 H :    0.071812
   8 H :    0.068343
   9 H :    0.070770
  10 H :    0.097743
  11 N :    0.300083
  12 O :   -0.283937
  13 O :   -0.284106
Sum of atomic charges:    0.0000000

LOEWDIN ATOMIC CHARGES
----------------------
   0 C :   -0.187751
   1 C :    0.088215
   2 C :    0.076420
   3 C :    0.081774
   4 C :    0.076486
   5 C :    0.088063
   6 H :   -0.049202
   7 H :   -0.051193
   8 H :   -0.050291
   9 H :   -0.051235
  10 H :   -0.049188
  11 N :   -0.280767
  12 O :    0.154418
  13 O :    0.154252

  Mayer bond orders larger than 0.100000
B(  0-C ,  1-C ) :   1.2411 B(  0-C ,  5-C ) :   1.2421 B(  0-C , 11-N ) :   0.8835
B(  1-C ,  2-C ) :   1.3275 B(  1-C ,  6-H ) :   0.9487 B(  2-C ,  3-C ) :   1.3236
B(  2-C ,  7-H ) :   0.9674 B(  3-C ,  4-C ) :   1.3225 B(  3-C ,  8-H ) :   0.9658
B(  4-C ,  5-C ) :   1.3265 B(  4-C ,  9-H ) :   0.9675 B(  5-C , 10-H ) :   0.9489
B( 11-N , 12-O ) :   1.6160 B( 11-N , 13-O ) :   1.6162 B( 12-O , 13-O ) :   0.2397

FINAL SINGLE POINT ENERGY      -436.716045206732

DIPOLE MOMENT
-------------
                                X             Y             Z
Electronic contribution:     -1.00511       5.86504      -0.00001
Nuclear contribution   :      1.31383      -7.66954      -0.00001
                        -----------------------------------------
Total Dipole Moment    :      0.30871      -1.80450      -0.00003
                        -----------------------------------------
Magnitude (a.u.)       :      1.83072
Magnitude (Debye)      :      4.65331

Rotational constants in cm-1:     0.132276     0.042761     0.032315
Rotational constants in MHz :  3965.541854  1281.952840   968.774232

                             ****ORCA TERMINATED NORMALLY****
TOTAL RUN TIME: 0 days 0 hours 54 minutes 6 seconds 485 msec
