                         Program Version 5.0.4 -  RELEASE  -
|  1> !BP86 def2-TZVP def2/J TIGHTSCF RIJCOSX
|  2>
|  3> %maxCore 2000
|  4>
|  5> %tddft
|  6> nroots 150
|  7> maxdim 5
|  8> donto true
|  9> end
| 10>
| 11> * xyz 0 1
| 12>   C   -4.88569336155230      2.98207060676121      0.04333537261272
| 13>   C   -6.14959695789773      2.35864301241116      0.02758592588736
| 14>   C   -6.25559380286015      0.96845232728990     -0.00121869885868
| 15>   C   -5.11290643775582      0.16234415122468     -0.01440284580436
| 16>   C   -3.85586007858743      0.77497453451715      0.00208204091935
| 17>   C   -3.73800009771254      2.16417133781313      0.03090801634500
| 18>   H   -7.05256446988853      2.97652953111245      0.03476026878305
| 19>   H   -7.24815752893036      0.50936420781894     -0.01176333836965
| 20>   H   -5.20066374355790     -0.92621478272232     -0.03568755561573
| 21>   H   -2.94935247147236      0.16323446923219     -0.00589977089820
| 22>   H   -2.74782466200470      2.62955680400795      0.04054469739011
| 23>   N   -4.77400026474504      4.36582607320833      0.02173325533785
| 24>   H   -5.57985384924347      4.88619583261605      0.34871705822918
| 25>   H   -3.89604227379165      4.75045189470918      0.35073557404198
| 26> *
| 27>
| 28>                          ****END OF INPUT****

CARTESIAN COORDINATES (ANGSTROEM)
---------------------------------
  C     -4.885693    2.982071    0.043335
  C     -6.149597    2.358643    0.027586
  C     -6.255594    0.968452   -0.001219
  C     -5.112906    0.162344   -0.014403
  C     -3.855860    0.774975    0.002082
  C     -3.738000    2.164171    0.030908
  H     -7.052564    2.976530    0.034760
  H     -7.248158    0.509364   -0.011763
  H     -5.200664   -0.926215   -0.035688
  H     -2.949352    0.163234   -0.005900
  H     -2.747825    2.629557    0.040545
  N     -4.774000    4.365826    0.021733
  H     -5.579854    4.886196    0.348717
  H     -3.896042    4.750452    0.350736

 Total Charge           Charge          ....    0
 Multiplicity           Mult            ....    1
 Number of Electrons    NEL             ....   50
 Basis Dimension        Dim             ....  259

ORBITAL ENERGIES
----------------

  NO   OCC          E(Eh)            E(eV)
   0   2.0000     -14.009472      -381.2171
   1   2.0000      -9.937864      -270.4230
   2   2.0000      -9.895667      -269.2748
   3   2.0000      -9.895659      -269.2746
   4   2.0000      -9.892454      -269.1874
   5   2.0000      -9.892432      -269.1868
   6   2.0000      -9.886116      -269.0149
   7   2.0000      -0.845664       -23.0117
   8   2.0000      -0.759589       -20.6695
   9   2.0000      -0.671690       -18.2776
  10   2.0000      -0.655653       -17.8412
  11   2.0000      -0.551660       -15.0114
  12   2.0000      -0.540350       -14.7037
  13   2.0000      -0.474719       -12.9178
  14   2.0000      -0.463136       -12.6026
  15   2.0000      -0.427949       -11.6451
  16   2.0000      -0.383505       -10.4357
  17   2.0000      -0.380972       -10.3668
  18   2.0000      -0.369328       -10.0499
  19   2.0000      -0.344443        -9.3728
  20   2.0000      -0.313744        -8.5374
  21   2.0000      -0.296972        -8.0810
  22   2.0000      -0.278051        -7.5662
  23   2.0000      -0.225770        -6.1435
  24   2.0000      -0.182544        -4.9673
  25   0.0000      -0.038576        -1.0497
  26   0.0000      -0.023193        -0.6311
  27   0.0000       0.015287         0.4160
  28   0.0000       0.039014         1.0616
  29   0.0000       0.050808         1.3826

MULLIKEN ATOMIC CHARGES
-----------------------
   0 C :    0.292860
   1 C :   -0.218086
   2 C :   -0.103919
   3 C :   -0.149958
   4 C :   -0.103936
   5 C :   -0.218026
   6 H :    0.096267
   7 H :    0.101670
   8 H :    0.101325
   9 H :    0.101699
  10 H :    0.096170
  11 N :   -0.448021
  12 H :    0.225989
  13 H :    0.225965
Sum of atomic charges:    0.0000000

LOEWDIN ATOMIC CHARGES
----------------------
   0 C :   -0.250694
   1 C :   -0.141734
   2 C :   -0.150013
   3 C :   -0.171651
   4 C :   -0.149998
   5 C :   -0.141747
   6 H :    0.141643
   7 H :    0.144526
   8 H :    0.141463
   9 H :    0.144524
  10 H :    0.141633
  11 N :   -0.036599
  12 H :    0.164339
  13 H :    0.164308

  Mayer bond orders larger than 0.100000
B(  0-C ,  1-C ) :   1.3329 B(  0-C ,  5-C ) :   1.3329 B(  0-C , 11-N ) :   1.0667
B(  1-C ,  2-C ) :   1.4656 B(  1-C ,  6-H ) :   0.9555 B(  2-C ,  3-C ) :   1.3959
B(  2-C ,  7-H ) :   0.9640 B(  3-C ,  4-C ) :   1.3958 B(  3-C ,  8-H ) :   0.9662
B(  4-C ,  5-C ) :   1.4657 B(  4-C ,  9-H ) :   0.9639 B(  5-C , 10-H ) :   0.9556
B( 11-N , 12-H ) :   0.9212 B( 11-N , 13-H ) :   0.9212

-----------------------------------------------------------------------------
         ABSORPTION SPECTRUM VIA TRANSITION ELECTRIC DIPOLE MOMENTS
-----------------------------------------------------------------------------
State   Energy    Wavelength  fosc         T2        TX        TY        TZ
        (cm-1)      (nm)                 (au**2)    (au)      (au)      (au)
-----------------------------------------------------------------------------
   1   36147.6    276.6   0.034036932   0.30999   0.55496  -0.04483   0.00064
   2   43235.0    231.3   0.049729874   0.37867  -0.04876  -0.60589  -0.09583
   3   45420.0    220.2   0.116916061   0.84743   0.07410   0.91531  -0.06433
   4   48839.1    204.8   0.000131612   0.00089  -0.00235  -0.02897  -0.00650
   5   50384.8    198.5   0.071473343   0.46700   0.68116  -0.05505   0.00074
   6   51298.7    194.9   0.006737289   0.04324  -0.20724   0.01693  -0.00060
   7   52962.5    188.8   0.000156531   0.00097   0.03114  -0.00172   0.00039
   8   56046.5    178.4   0.750052908   4.40574   0.16705   2.09180   0.04684
   9   57614.2    173.6   0.004835075   0.02763  -0.00048  -0.00643   0.16609
  10   58231.9    171.7   0.005506239   0.03113  -0.00338   0.10125  -0.14445
  11   58242.3    171.7   0.002475483   0.01399  -0.11735  -0.00102   0.01483
  12   58546.5    170.8   0.001860723   0.01046   0.10197  -0.00796   0.00125
  13   60186.8    166.1   0.019955602   0.10915   0.32931  -0.02660   0.00045
  14   60755.2    164.6   0.005916701   0.03206   0.00252   0.05394  -0.17072
  15   61042.6    163.8   0.041978497   0.22640   0.47426  -0.03834   0.00005
  16   61441.6    162.8   0.090749924   0.48625   0.05472   0.69344  -0.04892
  17   62514.2    160.0   0.496601078   2.61520   1.61204  -0.12854   0.00242
  18   64443.5    155.2   0.014989372   0.07657  -0.02017  -0.26314  -0.08322
  19   64792.9    154.3   0.007152620   0.03634  -0.00154  -0.06162   0.18040
  20   64978.2    153.9   0.003074540   0.01558  -0.00024  -0.03399   0.12009
  21   65059.3    153.7   0.043973373   0.22251  -0.47043   0.03471   0.00100
  22   66141.4    151.2   0.013174253   0.06557   0.01898   0.24008  -0.08702
  23   67605.9    147.9   0.002822843   0.01375   0.11688  -0.00925  -0.00039
  24   68050.4    146.9   0.001674391   0.00810   0.00248   0.02600  -0.08613
  25   68709.8    145.5   0.003412113   0.01635   0.12721  -0.01291  -0.00012
  26   69351.2    144.2   0.031411458   0.14911  -0.03080  -0.38490  -0.00346
  27   69514.2    143.9   0.030455761   0.14424   0.37855  -0.03051   0.00081
  28   70148.9    142.6   0.013000114   0.06101   0.01112   0.14726   0.19799
  29   72209.4    138.5   0.002104767   0.00960   0.09754  -0.00904   0.00056
  30   72661.1    137.6   0.131600469   0.59625   0.06186   0.76929   0.02503
  31   73250.0    136.5   0.001111570   0.00500  -0.00551  -0.06914  -0.01361
  32   74224.7    134.7   0.000008137   0.00004  -0.00593   0.00096  -0.00012
  33   74626.8    134.0   0.000987463   0.00436  -0.00587  -0.06513  -0.00895
  34   74697.0    133.9   0.003625612   0.01598  -0.12614   0.00820  -0.00031
  35   75421.9    132.6   0.002320548   0.01013  -0.10033   0.00793  -0.00004
  36   75907.8    131.7   0.001709546   0.00741   0.00559   0.07294   0.04541
  37   76095.2    131.4   0.002698366   0.01167  -0.00690  -0.08328  -0.06849
  38   76151.7    131.3   0.000024817   0.00011  -0.00746   0.00604   0.00388
  39   76825.7    130.2   0.008495040   0.03640   0.01471   0.18719   0.03385
  40   76914.3    130.0   0.001327335   0.00568   0.07536  -0.00143   0.00001
  41   76980.1    129.9   0.167279903   0.71539  -0.06511  -0.84306  -0.02008
  42   78567.1    127.3   0.006007860   0.02517   0.01267   0.15744   0.01504
  43   79152.1    126.3   0.002056015   0.00855  -0.00454  -0.05050  -0.07733
  44   79238.9    126.2   0.000503332   0.00209  -0.04522   0.00536   0.00421
  45   79277.9    126.1   0.016428686   0.06822   0.00611   0.07251   0.25085
  46   79658.0    125.5   0.000075535   0.00031   0.01754  -0.00201   0.00065
  47   80189.3    124.7   0.001784481   0.00733  -0.00039   0.04208   0.07453
  48   80246.5    124.6   0.078024156   0.32009   0.56419  -0.04228   0.00129
  49   81061.9    123.4   0.000002206   0.00001  -0.00245   0.00008   0.00171
  50   82416.1    121.3   0.031295521   0.12501   0.00157   0.03911   0.35140
  51   83439.5    119.8   0.056765591   0.22397  -0.47172   0.03805   0.00084
  52   83521.2    119.7   0.000370907   0.00146  -0.01361  -0.02484  -0.02569
  53   83938.5    119.1   0.005842586   0.02291  -0.15084   0.01262  -0.00130
  54   84168.7    118.8   0.004489623   0.01756   0.01202   0.12994   0.02303
  55   84428.2    118.4   0.003903926   0.01522   0.01120   0.12198  -0.01479
  56   84632.5    118.2   0.002951322   0.01148   0.10698  -0.00603   0.00049
  57   85750.3    116.6   0.000296276   0.00114  -0.03345   0.00431   0.00029
  58   85798.8    116.6   0.000122186   0.00047  -0.02140   0.00318   0.00090
  59   85834.3    116.5   0.000553463   0.00212  -0.00532  -0.04169   0.01888
  60   86613.5    115.5   0.001467883   0.00558   0.07447  -0.00512   0.00281
  61   86801.0    115.2   0.000019191   0.00007   0.00846  -0.00108  -0.00004
  62   86976.8    115.0   0.020133603   0.07621   0.01003   0.18870   0.20124
  63   87153.5    114.7   0.002225431   0.00841  -0.09111  -0.00555  -0.00868
  64   87317.9    114.5   0.031159102   0.11748  -0.34123   0.03220  -0.00202
  65   87463.2    114.3   0.029990970   0.11289  -0.03805  -0.32634   0.07027
  66   87617.5    114.1   0.005634402   0.02117   0.14341  -0.02450   0.00187
  67   87854.7    113.8   0.022181495   0.08312  -0.02392  -0.28059   0.06178
  68   88374.0    113.2   0.002022145   0.00753  -0.08652   0.00673  -0.00130
  69   88800.0    112.6   0.000150486   0.00056  -0.00383  -0.02329  -0.00079
  70   88942.3    112.4   0.013617152   0.05040   0.22361  -0.01997   0.00171
  71   89262.9    112.0   0.007021289   0.02590   0.01075   0.11815  -0.10872
  72   89762.6    111.4   0.001772726   0.00650   0.08008  -0.00940  -0.00077
  73   90161.4    110.9   0.008139747   0.02972  -0.01311  -0.17165   0.00920
  74   90523.8    110.5   0.014808629   0.05386   0.02080   0.21624   0.08164
  75   91055.9    109.8   0.187045771   0.67626   0.81995  -0.06286   0.00054
  76   91204.9    109.6   0.275911272   0.99593  -0.99496   0.07729  -0.00127
  77   91830.6    108.9   0.021159507   0.07586  -0.27461   0.02105   0.00061
  78   92066.9    108.6   0.002122193   0.00759   0.08676  -0.00784   0.00061
  79   92398.4    108.2   0.005044939   0.01797  -0.00649  -0.12183  -0.05560
  80   92599.8    108.0   0.008925923   0.03173  -0.01733  -0.17697   0.01079
  81   92832.6    107.7   0.003933858   0.01395  -0.11757   0.01130  -0.00003
  82   93335.2    107.1   0.002648903   0.00934  -0.00800   0.00425   0.09624
  83   93448.2    107.0   0.114277070   0.40259   0.63347  -0.03538   0.00702
  84   93482.7    107.0   0.023284638   0.08200  -0.00888   0.28111   0.05385
  85   93656.3    106.8   0.013070237   0.04594   0.21354  -0.01848  -0.00124
  86   93752.2    106.7   0.001726101   0.00606  -0.00357  -0.07604   0.01631
  87   93817.3    106.6   0.004027721   0.01413   0.00621   0.05652  -0.10441
  88   94182.6    106.2   0.002212908   0.00774  -0.08667   0.01493  -0.00024
  89   94196.4    106.2   0.102751109   0.35911   0.04852   0.59711  -0.01475
  90   94676.2    105.6   0.141640853   0.49252  -0.05176  -0.69958  -0.02071
  91   95332.9    104.9   0.019999795   0.06907   0.01957   0.25772   0.04757
  92   95695.4    104.5   0.005419758   0.01865  -0.01192  -0.13599   0.00329
  93   95903.5    104.3   0.011509366   0.03951   0.19796  -0.01786   0.00012
  94   96445.9    103.7   0.000672164   0.00229   0.04771  -0.00389   0.00184
  95   96820.9    103.3   0.120232310   0.40882  -0.00262  -0.02321   0.63896
  96   97128.0    103.0   0.003467160   0.01175   0.10804  -0.00892  -0.00067
  97   97484.1    102.6   0.003852721   0.01301  -0.00821  -0.09418   0.06383
  98   97786.1    102.3   0.023209093   0.07814  -0.01578  -0.21851  -0.17361
  99   97978.2    102.1   0.001584234   0.00532   0.06947   0.01819   0.01290
 100   98038.6    102.0   0.028951479   0.09722   0.01723   0.28251   0.13080
 101   98844.5    101.2   0.032459057   0.10811   0.01706   0.23128  -0.23308
 102   99123.8    100.9   0.000000958   0.00000   0.00175   0.00022   0.00027
 103   99490.4    100.5   0.040671976   0.13458  -0.10495   0.35110  -0.01722
 104   99537.9    100.5   0.076957578   0.25453  -0.50224  -0.04764   0.00410
 105   99919.1    100.1   0.018641782   0.06142  -0.02124  -0.20251   0.14128
 106  100222.9     99.8   0.005298426   0.01740  -0.01007  -0.12521  -0.04032
 107  100553.3     99.4   0.001471387   0.00482  -0.06915   0.00577   0.00170
 108  101562.5     98.5   0.007173483   0.02325  -0.00208   0.01944   0.15123
 109  101689.0     98.3   0.052024631   0.16843  -0.40938   0.02889  -0.00003
 110  101963.2     98.1   0.059189842   0.19111   0.02059  -0.06112   0.43238
 111  101989.4     98.0   0.024189893   0.07808  -0.27618   0.01578   0.03945
 112  102424.0     97.6   0.008035697   0.02583   0.00281  -0.01458   0.16002
 113  102472.4     97.6   0.001305424   0.00419  -0.06445   0.00612   0.00173
 114  102861.4     97.2   0.004812030   0.01540  -0.00274  -0.05916   0.10906
 115  103334.9     96.8   0.036696772   0.11691  -0.03973  -0.33185   0.07215
 116  103568.1     96.6   0.015340977   0.04876   0.07438  -0.14446   0.14954
 117  103603.0     96.5   0.027708912   0.08805  -0.29370  -0.00797   0.04155
 118  104341.7     95.8   0.117023997   0.36923  -0.00849  -0.07007   0.60353
 119  104440.6     95.7   0.006665824   0.02101   0.14270  -0.00062   0.02546
 120  104499.5     95.7   0.065978125   0.20786   0.01350   0.26665   0.36955
 121  104682.5     95.5   0.194352150   0.61121   0.00208  -0.04188  -0.78067
 122  104924.7     95.3   0.005343673   0.01677  -0.11543   0.00511  -0.05845
 123  105475.5     94.8   0.023184417   0.07236  -0.26829   0.01953   0.00203
 124  105905.2     94.4   0.060931951   0.18941  -0.43438   0.02689   0.00040
 125  105996.6     94.3   0.185927305   0.57747   0.06037   0.75693  -0.02956
 126  106250.6     94.1   0.000068682   0.00021  -0.01284   0.00674  -0.00160
 127  106439.3     94.0   0.028561006   0.08834  -0.29594   0.02752  -0.00123
 128  106468.9     93.9   0.003464217   0.01071  -0.00389  -0.08007  -0.06546
 129  106668.3     93.7   0.046382455   0.14315  -0.37697   0.03231  -0.00181
 130  107461.2     93.1   0.000004679   0.00001   0.00007   0.00231   0.00300
 131  107765.8     92.8   0.001918143   0.00586   0.00335   0.07604  -0.00811
 132  107796.5     92.8   0.001322483   0.00404  -0.06352   0.00176   0.00127
 133  107811.3     92.8   0.001781787   0.00544  -0.07354   0.00568   0.00024
 134  108191.1     92.4   0.002447939   0.00745   0.08627  -0.00007  -0.00265
 135  108223.9     92.4   0.000454865   0.00138   0.01973   0.00961  -0.03003
 136  108273.5     92.4   0.039686154   0.12067   0.03187   0.34274   0.04675
 137  108362.1     92.3   0.135759947   0.41245   0.01088   0.15442  -0.62329
 138  108557.8     92.1   0.075088928   0.22771   0.47549  -0.04019   0.00236
 139  108833.1     91.9   0.074656450   0.22583   0.03604   0.47321  -0.02450
 140  108960.3     91.8   0.146470087   0.44254   0.00358   0.06545   0.66200
 141  109338.3     91.5   0.011233265   0.03382  -0.01254   0.13258  -0.12684
 142  109351.2     91.4   0.003837588   0.01155   0.09381   0.03197  -0.04159
 143  109384.3     91.4   0.046229143   0.13914   0.00820  -0.34934  -0.13050
 144  109538.5     91.3   0.139951226   0.42062  -0.64733   0.03956  -0.00327
 145  109868.6     91.0   0.036779366   0.11021   0.01239   0.05914   0.32643
 146  110311.4     90.7   0.013487049   0.04025   0.08467  -0.13632  -0.12041
 147  110315.3     90.6   0.011814760   0.03526  -0.16832  -0.05188  -0.06507
 148  110691.2     90.3   0.000046850   0.00014   0.01176  -0.00096   0.00025
 149  110825.6     90.2   0.025522826   0.07582   0.27458  -0.02055   0.00127
 150  111023.1     90.1   0.001504278   0.00446  -0.00078  -0.01034   0.06598

FINAL SINGLE POINT ENERGY      -287.548578488362

DIPOLE MOMENT
-------------
                                X             Y             Z
Electronic contribution:     -0.00769      -0.09728      -0.17471
Nuclear contribution   :      0.05809       0.72683       0.52928
                        -----------------------------------------
Total Dipole Moment    :      0.05040       0.62955       0.35457
                        -----------------------------------------
Magnitude (a.u.)       :      0.72429
Magnitude (Debye)      :      1.84099

Rotational constants in cm-1:     0.186570     0.086136     0.059004
Rotational constants in MHz :  5593.219850  2582.294403  1768.887501

                             ****ORCA TERMINATED NORMALLY****
TOTAL RUN TIME: 0 days 0 hours 11 minutes 49 seconds 327 msec
