                         Program Version 5.0.4 -  RELEASE  -
|  1> !B3LYP/G DEF2-SVP OPT FREQ D4 SOSCF
|  2>
|  3> %geom maxIter 1000 end
|  4>
|  5> * xyz 1 1
|  6>    C       -3.72729        0.77608        0.04229
|  7>    C       -4.65560       -0.25929        0.26264
|  8>    C       -4.25533       -1.55887        0.17217
|  9>    C       -2.93626       -1.87204       -0.13708
| 10>    C       -2.01416       -0.85755       -0.35682
| 11>    C       -2.39228        0.44929       -0.27126
| 12>    H       -5.67749       -0.01221        0.50203
| 13>    H       -4.96732       -2.34788        0.34199
| 14>    H       -2.62903       -2.90157       -0.20648
| 15>    H       -0.99326       -1.10499       -0.59700
| 16>    H       -1.68077        1.23958       -0.44217
| 17>    N       -4.10651        2.04660        0.12923
| 18>    H       -5.05048        2.29431        0.35092
| 19>    H       -3.45848        2.79181       -0.02392
| 20>    N        6.99069        3.51045       -1.35828
| 21>    O        7.18794        4.72688       -1.82069
| 22>    O        6.25322        2.86568       -0.45184
| 23> **                         ****END OF INPUT****
 Total Charge           Charge          ....    1
 Multiplicity           Mult            ....    1
 Number of Electrons    NEL             ....   72
Dispersion correction           -0.020595790
FINAL SINGLE POINT ENERGY      -491.978008841522
Dispersion correction            ... Starting D4
Dispersion correction           -0.020459971
FINAL SINGLE POINT ENERGY      -492.029624038365
Dispersion correction            ... Starting D4
Dispersion correction           -0.020388577
FINAL SINGLE POINT ENERGY      -492.033795677538
Dispersion correction            ... Starting D4
FINAL SINGLE POINT ENERGY      -492.038828206862
FINAL SINGLE POINT ENERGY      -492.039162053980
FINAL SINGLE POINT ENERGY      -492.039279493842
FINAL SINGLE POINT ENERGY      -492.039331336202
FINAL SINGLE POINT ENERGY      -492.039384536196
FINAL SINGLE POINT ENERGY      -492.039438696663
FINAL SINGLE POINT ENERGY      -492.039504126406
FINAL SINGLE POINT ENERGY      -492.040897079108
FINAL SINGLE POINT ENERGY      -492.040923572613
FINAL SINGLE POINT ENERGY      -492.040950182007
FINAL SINGLE POINT ENERGY      -492.040976480759
FINAL SINGLE POINT ENERGY      -492.041002458969
FINAL SINGLE POINT ENERGY      -492.041028160131
FINAL SINGLE POINT ENERGY      -492.041053592864
Dispersion correction           -0.020407491
FINAL SINGLE POINT ENERGY      -492.041078771567
Dispersion correction            ... Starting D4
Dispersion correction           -0.020407803
FINAL SINGLE POINT ENERGY      -492.041103685120
Dispersion correction            ... Starting D4
                    ***********************HURRAY********************

CARTESIAN COORDINATES (ANGSTROEM)
---------------------------------
  C     -4.541402    0.585775    0.112015
  C     -5.240581   -0.608744    0.462989
  C     -4.606585   -1.832799    0.362945
  C     -3.273101   -1.912426   -0.083968
  C     -2.575536   -0.739390   -0.431890
  C     -3.189676    0.495663   -0.339240
  H     -6.274915   -0.542769    0.808154
  H     -5.144610   -2.743828    0.632338
  H     -2.780671   -2.883623   -0.160722
  H     -1.542070   -0.804539   -0.777953
  H     -2.652326    1.407812   -0.608847
  N     -5.151136    1.784272    0.205856
  H     -6.110788    1.862732    0.523552
  H     -4.669258    2.641198   -0.041588
  N     10.016628    4.171886   -1.533207
  O     10.676323    5.112273   -1.737963
  O      8.947295    3.792789   -1.256739

 Multiplicity           Mult            ....    1
 Number of Electrons    NEL             ....   72
 Basis Dimension        Dim             ....  175

ORBITAL ENERGIES
----------------

  NO   OCC          E(Eh)            E(eV)
   0   2.0000     -19.422301      -528.5077
   1   2.0000     -19.422249      -528.5063
   2   2.0000     -14.743986      -401.2043
   3   2.0000     -14.509988      -394.8368
   4   2.0000     -10.388299      -282.6800
   5   2.0000     -10.329245      -281.0730
   6   2.0000     -10.328699      -281.0582
   7   2.0000     -10.328533      -281.0537
   8   2.0000     -10.324466      -280.9430
   9   2.0000     -10.323670      -280.9213
  10   2.0000      -1.452728       -39.5308
  11   2.0000      -1.321888       -35.9704
  12   2.0000      -1.076342       -29.2888
  13   2.0000      -0.969915       -26.3927
  14   2.0000      -0.877305       -23.8727
  15   2.0000      -0.857762       -23.3409
  16   2.0000      -0.799519       -21.7560
  17   2.0000      -0.750155       -20.4128
  18   2.0000      -0.743963       -20.2443
  19   2.0000      -0.743736       -20.2381
  20   2.0000      -0.738343       -20.0913
  21   2.0000      -0.724342       -19.7104
  22   2.0000      -0.670645       -18.2492
  23   2.0000      -0.666203       -18.1283
  24   2.0000      -0.618355       -16.8263
  25   2.0000      -0.573836       -15.6149
  26   2.0000      -0.564729       -15.3671
  27   2.0000      -0.556791       -15.1511
  28   2.0000      -0.544500       -14.8166
  29   2.0000      -0.537726       -14.6323
  30   2.0000      -0.535391       -14.5687
  31   2.0000      -0.496513       -13.5108
  32   2.0000      -0.477889       -13.0040
  33   2.0000      -0.457097       -12.4382
  34   2.0000      -0.392222       -10.6729
  35   2.0000      -0.331977        -9.0336
  36   0.0000      -0.324897        -8.8409
  37   0.0000      -0.229064        -6.2331
  38   0.0000      -0.137864        -3.7515
  39   0.0000      -0.127293        -3.4638
  40   0.0000      -0.072410        -1.9704

MULLIKEN ATOMIC CHARGES
-----------------------
   0 C :    0.048887
   1 C :    0.021535
   2 C :    0.026172
   3 C :    0.056424
   4 C :    0.025934
   5 C :    0.020312
   6 H :    0.008598
   7 H :    0.032374
   8 H :    0.035357
   9 H :    0.028067
  10 H :    0.004662
  11 N :    0.013677
  12 H :    0.154217
  13 H :    0.152843
  14 N :    0.376318
  15 O :    0.001013
  16 O :   -0.006390
Sum of atomic charges:    1.0000000

LOEWDIN ATOMIC CHARGES
----------------------
   0 C :    0.062838
   1 C :   -0.014968
   2 C :    0.012591
   3 C :    0.037139
   4 C :    0.010535
   5 C :   -0.017184
   6 H :    0.042598
   7 H :    0.049860
   8 H :    0.048126
   9 H :    0.047988
  10 H :    0.040927
  11 N :    0.103339
  12 H :    0.103046
  13 H :    0.102225
  14 N :    0.286799
  15 O :    0.045578
  16 O :    0.038564

  Mayer bond orders larger than 0.100000
B(  0-C ,  1-C ) :   1.2037 B(  0-C ,  5-C ) :   1.2045 B(  0-C , 11-N ) :   1.3695
B(  1-C ,  2-C ) :   1.4701 B(  1-C ,  6-H ) :   0.9884 B(  2-C ,  3-C ) :   1.3050
B(  2-C ,  7-H ) :   0.9815 B(  3-C ,  4-C ) :   1.3061 B(  3-C ,  8-H ) :   0.9871
B(  3-C , 14-N ) :   0.1052 B(  4-C ,  5-C ) :   1.4680 B(  4-C ,  9-H ) :   0.9817
B(  5-C , 10-H ) :   0.9880 B( 11-N , 12-H ) :   0.9343 B( 11-N , 13-H ) :   0.9348
B( 11-N , 14-N ) :   0.1113 B( 14-N , 15-O ) :   1.7488 B( 14-N , 16-O ) :   1.7421
B( 15-O , 16-O ) :   0.3550

Dispersion correction           -0.020407800
FINAL SINGLE POINT ENERGY      -492.041103639826

DIPOLE MOMENT
-------------
                                X             Y             Z
Electronic contribution:     31.06737      10.43177      -3.44539
Nuclear contribution   :    -30.44116      -9.22194       3.39341
                        -----------------------------------------
Total Dipole Moment    :      0.62622       1.20983      -0.05198
                        -----------------------------------------
Magnitude (a.u.)       :      1.36328
Magnitude (Debye)      :      3.46518

Dispersion correction in the Hessian             ... Starting D4

VIBRATIONAL FREQUENCIES
-----------------------

Scaling factor for frequencies =  1.000000000  (already applied!)

   0:         0.00 cm**-1
   1:         0.00 cm**-1
   2:         0.00 cm**-1
   3:         0.00 cm**-1
   4:         0.00 cm**-1
   5:         0.00 cm**-1
   6:       -16.00 cm**-1 ***imaginary mode***
   7:        -7.94 cm**-1 ***imaginary mode***
   8:         4.94 cm**-1
   9:         7.27 cm**-1
  10:        10.49 cm**-1
  11:        21.37 cm**-1
  12:       202.00 cm**-1
  13:       388.07 cm**-1
  14:       394.80 cm**-1
  15:       454.52 cm**-1
  16:       505.41 cm**-1
  17:       515.21 cm**-1
  18:       532.00 cm**-1
  19:       611.83 cm**-1
  20:       634.64 cm**-1
  21:       671.93 cm**-1
  22:       800.83 cm**-1
  23:       819.83 cm**-1
  24:       836.56 cm**-1
  25:       929.19 cm**-1
  26:       996.09 cm**-1
  27:      1005.78 cm**-1
  28:      1023.09 cm**-1
  29:      1028.66 cm**-1
  30:      1030.80 cm**-1
  31:      1123.08 cm**-1
  32:      1174.08 cm**-1
  33:      1192.72 cm**-1
  34:      1351.17 cm**-1
  35:      1368.48 cm**-1
  36:      1386.66 cm**-1
  37:      1398.62 cm**-1
  38:      1501.34 cm**-1
  39:      1524.54 cm**-1
  40:      1566.63 cm**-1
  41:      1631.70 cm**-1
  42:      1667.72 cm**-1
  43:      2030.87 cm**-1
  44:      3191.53 cm**-1
  45:      3193.07 cm**-1
  46:      3205.45 cm**-1
  47:      3211.40 cm**-1
  48:      3220.56 cm**-1
  49:      3569.76 cm**-1
  50:      3692.00 cm**-1

IR SPECTRUM
-----------

 Mode   freq       eps      Int      T**2         TX        TY        TZ
       cm**-1   L/(mol*cm) km/mol    a.u.
----------------------------------------------------------------------------
  8:      4.94   0.000000    0.00  0.000000  ( 0.000000  0.000000  0.000000)
  9:      7.27   0.000054    0.27  0.002335  (-0.043644 -0.019755  0.006322)
 10:     10.49   0.000006    0.03  0.000180  (-0.003490 -0.003926  0.012341)
 11:     21.37   0.000320    1.62  0.004673  ( 0.010984 -0.000391  0.067470)
 12:    202.00   0.001405    7.10  0.002170  ( 0.014175  0.004073  0.044188)
 13:    388.07   0.000460    2.33  0.000370  ( 0.015679  0.008878 -0.006754)
 14:    394.80   0.000003    0.01  0.000002  (-0.000068  0.000003 -0.001432)
 15:    454.52   0.034064  172.15  0.023388  ( 0.042385  0.012287  0.146426)
 16:    505.41   0.001567    7.92  0.000967  ( 0.007543  0.002333  0.030084)
 17:    515.21   0.000056    0.28  0.000034  ( 0.002477  0.000627  0.005253)
 18:    532.00   0.099168  501.15  0.058170  (-0.225784 -0.081169  0.024560)
 19:    611.83   0.000010    0.05  0.000005  (-0.001488 -0.001338  0.000930)
 20:    634.64   1.456626  7361.19  0.716249  (-0.794386 -0.278668  0.086856)
 21:    671.93   0.007313   36.96  0.003397  ( 0.019923  0.005716  0.054469)
 22:    800.83   0.006953   35.14  0.002709  (-0.016150 -0.004534 -0.049275)
 23:    819.83   0.000008    0.04  0.000003  ( 0.000949  0.000254  0.001491)
 24:    836.56   0.004270   21.58  0.001593  (-0.035021 -0.018735  0.003905)
 25:    929.19   0.000988    4.99  0.000332  (-0.005487 -0.001498 -0.017309)
 26:    996.09   0.013603   68.75  0.004262  ( 0.063976  0.010750 -0.007298)
 27:   1005.78   0.000000    0.00  0.000000  (-0.000199 -0.000021 -0.000079)
 28:   1023.09   0.000007    0.04  0.000002  ( 0.001177  0.000697 -0.000525)
 29:   1028.66   0.000007    0.04  0.000002  (-0.000612 -0.000148 -0.001359)
 30:   1030.80   0.003033   15.33  0.000918  ( 0.026317  0.014749 -0.002848)
 31:   1123.08   0.001532    7.74  0.000426  (-0.016718 -0.009718  0.007199)
 32:   1174.08   0.000009    0.04  0.000002  (-0.001497 -0.000078 -0.000188)
 33:   1192.72   0.047791  241.52  0.012504  ( 0.108729  0.023015 -0.012353)
 34:   1351.17   0.000003    0.01  0.000001  (-0.000519 -0.000443  0.000402)
 35:   1368.48   1.647335  8324.95  0.375652  ( 0.583021  0.177661 -0.064619)
 36:   1386.66   0.381880  1929.86  0.085941  ( 0.276939  0.091193 -0.030494)
 37:   1398.62   0.000075    0.38  0.000017  ( 0.003966  0.000994 -0.000105)
 38:   1501.34   0.001502    7.59  0.000312  (-0.014518 -0.008243  0.005795)
 39:   1524.54   0.021065  106.46  0.004312  (-0.056356  0.032910  0.007275)
 40:   1566.63   0.000302    1.53  0.000060  (-0.006409 -0.003529  0.002574)
 41:   1631.70   0.025730  130.03  0.004921  ( 0.040147 -0.057238 -0.005740)
 42:   1667.72   0.135861  686.59  0.025422  ( 0.158269  0.006240 -0.018278)
 43:   2030.87   0.064408  325.49  0.009897  (-0.076591 -0.059582  0.021925)
 44:   3191.53   0.000836    4.23  0.000082  ( 0.008138 -0.003825 -0.000946)
 45:   3193.07   0.000136    0.69  0.000013  (-0.003393  0.001267  0.000453)
 46:   3205.45   0.001996   10.08  0.000194  ( 0.013656  0.002428 -0.001373)
 47:   3211.40   0.000005    0.03  0.000001  (-0.000673  0.000057  0.000259)
 48:   3220.56   0.000693    3.50  0.000067  ( 0.007804  0.002369 -0.000769)
 49:   3569.76   0.181318  916.31  0.015851  ( 0.123746 -0.017814 -0.014840)
 50:   3692.00   0.013102   66.21  0.001107  ( 0.027268  0.015338 -0.011341)

--------------------------
THERMOCHEMISTRY AT 298.15K
--------------------------

Temperature         ... 298.15 K
Pressure            ... 1.00 atm
Total Mass          ... 139.13 AMU

Throughout the following assumptions are being made:
  (1) The electronic state is orbitally nondegenerate
  (2) There are no thermally accessible electronically excited states
  (3) Hindered rotations indicated by low frequency modes are not
      treated as such but are treated as vibrations and this may
      cause some error
  (4) All equations used are the standard statistical mechanics
      equations for an ideal gas
  (5) All vibrations are strictly harmonic

freq.       4.94  E(vib)   ...       0.59
freq.       7.27  E(vib)   ...       0.58
freq.      10.49  E(vib)   ...       0.58
freq.      21.37  E(vib)   ...       0.56
freq.     202.00  E(vib)   ...       0.35
freq.     388.07  E(vib)   ...       0.20
freq.     394.80  E(vib)   ...       0.20
freq.     454.52  E(vib)   ...       0.16
freq.     505.41  E(vib)   ...       0.14
freq.     515.21  E(vib)   ...       0.13
freq.     532.00  E(vib)   ...       0.13
freq.     611.83  E(vib)   ...       0.10
freq.     634.64  E(vib)   ...       0.09
freq.     671.93  E(vib)   ...       0.08
freq.     800.83  E(vib)   ...       0.05
freq.     819.83  E(vib)   ...       0.05
freq.     836.56  E(vib)   ...       0.04
freq.     929.19  E(vib)   ...       0.03
freq.     996.09  E(vib)   ...       0.02
freq.    1005.78  E(vib)   ...       0.02
freq.    1023.09  E(vib)   ...       0.02
freq.    1028.66  E(vib)   ...       0.02
freq.    1030.80  E(vib)   ...       0.02
freq.    1123.08  E(vib)   ...       0.01
freq.    1174.08  E(vib)   ...       0.01
freq.    1192.72  E(vib)   ...       0.01
freq.    1351.17  E(vib)   ...       0.01
freq.    1368.48  E(vib)   ...       0.01
freq.    1386.66  E(vib)   ...       0.00
freq.    1398.62  E(vib)   ...       0.00
freq.    1501.34  E(vib)   ...       0.00
freq.    1524.54  E(vib)   ...       0.00
freq.    1566.63  E(vib)   ...       0.00
freq.    1631.70  E(vib)   ...       0.00
freq.    1667.72  E(vib)   ...       0.00
freq.    2030.87  E(vib)   ...       0.00
freq.    3191.53  E(vib)   ...       0.00
freq.    3193.07  E(vib)   ...       0.00
freq.    3205.45  E(vib)   ...       0.00
freq.    3211.40  E(vib)   ...       0.00
freq.    3220.56  E(vib)   ...       0.00
freq.    3569.76  E(vib)   ...       0.00
freq.    3692.00  E(vib)   ...       0.00

------------
INNER ENERGY
------------

The inner energy is: U= E(el) + E(ZPE) + E(vib) + E(rot) + E(trans)
    E(el)   - is the total energy from the electronic structure calculation
              = E(kin-el) + E(nuc-el) + E(el-el) + E(nuc-nuc)
    E(ZPE)  - the the zero temperature vibrational energy from the frequency calculation
    E(vib)  - the the finite temperature correction to E(ZPE) due to population
              of excited vibrational states
    E(rot)  - is the rotational thermal energy
    E(trans)- is the translational thermal energy

Summary of contributions to the inner energy U:
Electronic energy                ...   -492.04110364 Eh
Zero point energy                ...      0.12672695 Eh      79.52 kcal/mol
Thermal vibrational correction   ...      0.00673661 Eh       4.23 kcal/mol
Thermal rotational correction    ...      0.00141627 Eh       0.89 kcal/mol
Thermal translational correction ...      0.00141627 Eh       0.89 kcal/mol
-----------------------------------------------------------------------
Total thermal energy                   -491.90480754 Eh

Summary of corrections to the electronic energy:
(perhaps to be used in another calculation)
Total thermal correction                  0.00956915 Eh       6.00 kcal/mol
Non-thermal (ZPE) correction              0.12672695 Eh      79.52 kcal/mol
-----------------------------------------------------------------------
Total correction                          0.13629610 Eh      85.53 kcal/mol

--------
ENTHALPY
--------

The enthalpy is H = U + kB*T
                kB is Boltzmann's constant
Total free energy                 ...   -491.90480754 Eh
Thermal Enthalpy correction       ...      0.00094421 Eh       0.59 kcal/mol
-----------------------------------------------------------------------
Total Enthalpy                    ...   -491.90386333 Eh

Note: Only C1 symmetry has been detected, increase convergence thresholds
      if your molecule has a higher symmetry. Symmetry factor of 1.0 is
      used for the rotational entropy correction.

Note: Rotational entropy computed according to Herzberg
Infrared and Raman Spectra, Chapter V,1, Van Nostrand Reinhold, 1945
Point Group:  C1, Symmetry Number:   1
Rotational constants in cm-1:     0.084456     0.002447     0.002382

Vibrational entropy computed according to the QRRHO of S. Grimme
Chem.Eur.J. 2012 18 9955

-------
ENTROPY
-------

The entropy contributions are T*S = T*(S(el)+S(vib)+S(rot)+S(trans))
     S(el)   - electronic entropy
     S(vib)  - vibrational entropy
     S(rot)  - rotational entropy
     S(trans)- translational entropy
The entropies will be listed as multiplied by the temperature to get
units of energy

Electronic entropy                ...      0.00000000 Eh      0.00 kcal/mol
Vibrational entropy               ...      0.01430911 Eh      8.98 kcal/mol
Rotational entropy                ...      0.01636749 Eh     10.27 kcal/mol
Translational entropy             ...      0.01933899 Eh     12.14 kcal/mol
-----------------------------------------------------------------------
Final entropy term                ...      0.05001559 Eh     31.39 kcal/mol

In case the symmetry of your molecule has not been determined correctly
or in case you have a reason to use a different symmetry number we print
out the resulting rotational entropy values for sn=1,12 :
 --------------------------------------------------------
|  sn= 1 | S(rot)=       0.01636749 Eh     10.27 kcal/mol|
|  sn= 2 | S(rot)=       0.01571303 Eh      9.86 kcal/mol|
|  sn= 3 | S(rot)=       0.01533020 Eh      9.62 kcal/mol|
|  sn= 4 | S(rot)=       0.01505858 Eh      9.45 kcal/mol|
|  sn= 5 | S(rot)=       0.01484789 Eh      9.32 kcal/mol|
|  sn= 6 | S(rot)=       0.01467574 Eh      9.21 kcal/mol|
|  sn= 7 | S(rot)=       0.01453020 Eh      9.12 kcal/mol|
|  sn= 8 | S(rot)=       0.01440412 Eh      9.04 kcal/mol|
|  sn= 9 | S(rot)=       0.01429291 Eh      8.97 kcal/mol|
|  sn=10 | S(rot)=       0.01419343 Eh      8.91 kcal/mol|
|  sn=11 | S(rot)=       0.01410344 Eh      8.85 kcal/mol|
|  sn=12 | S(rot)=       0.01402129 Eh      8.80 kcal/mol|
 --------------------------------------------------------

-------------------
GIBBS FREE ENERGY
-------------------

The Gibbs free energy is G = H - T*S

                             ****ORCA TERMINATED NORMALLY****
TOTAL RUN TIME: 0 days 9 hours 3 minutes 47 seconds 971 msec
