                         Program Version 5.0.4 -  RELEASE  -
|  1> !B3LYP DEF2-SVP OPT FREQ D4 SOSCF
|  2>
|  3> %geom
|  4> convergence tight
|  5> maxiter 1000
|  6> end
|  7>
|  8> * xyz 1 1
|  9>   C   0.44258839179760      0.57131323203787      3.44519998337857
| 10>   C   -0.22591043122698      1.20361856098884      2.35902973608921
| 11>   C   -0.18573826667829      0.65153890423122      1.09153096684281
| 12>   C   0.52797319586849     -0.55147997460816      0.86797352229176
| 13>   C   1.19643274831608     -1.19609515180021      1.93291887196247
| 14>   C   1.15598445716822     -0.64509532339265      3.19921543166711
| 15>   C   0.40131206834911      1.14299947005267      4.81543962898439
| 16>   H   1.41742322194523      1.20779086419913      5.24577276648342
| 17>   H   -0.15621102867741      0.46415094977154      5.49213619269816
| 18>   H   -0.07383131103056      2.13200316198605      4.84926609471892
| 19>   H   -0.77065226255027      2.13289182282876      2.54009557537169
| 20>   H   -0.69951731279755      1.13815158311591      0.26009772968568
| 21>   H   0.55921879451707     -0.98456176303871     -0.13452475449592
| 22>   H   1.74228902418790     -2.12398765253056      1.75011660980430
| 23>   H   1.67053526022174     -1.13320393802821      4.03072307993694
| 24>   N   -2.31817532509503     -2.32040762533373    -13.50925417081270
| 25>   O   -2.13975939026047     -1.22886114851251    -13.23968068255069
| 26>   O   -2.22484183405488     -0.55170597196724    -14.64779658205603
| 27> **                         ****END OF INPUT****
 Total Charge           Charge          ....    1
 Multiplicity           Mult            ....    1
 Number of Electrons    NEL             ....   72
Dispersion correction           -0.021360110
FINAL SINGLE POINT ENERGY      -475.547013132654
Dispersion correction            ... Starting D4
Dispersion correction           -0.021359861
FINAL SINGLE POINT ENERGY      -475.547039398164
Dispersion correction            ... Starting D4
Dispersion correction           -0.021359623
FINAL SINGLE POINT ENERGY      -475.547064096776
Dispersion correction            ... Starting D4
FINAL SINGLE POINT ENERGY      -475.547087376318
FINAL SINGLE POINT ENERGY      -475.547110218774
FINAL SINGLE POINT ENERGY      -475.547132924009
FINAL SINGLE POINT ENERGY      -475.547154971139
FINAL SINGLE POINT ENERGY      -475.547178553657
FINAL SINGLE POINT ENERGY      -475.547200440231
FINAL SINGLE POINT ENERGY      -475.547204205293
FINAL SINGLE POINT ENERGY      -475.548517819827
FINAL SINGLE POINT ENERGY      -475.548516387771
FINAL SINGLE POINT ENERGY      -475.548515153880
FINAL SINGLE POINT ENERGY      -475.548514470834
FINAL SINGLE POINT ENERGY      -475.548514508744
FINAL SINGLE POINT ENERGY      -475.548517031443
FINAL SINGLE POINT ENERGY      -475.548521465030
Dispersion correction           -0.021368581
FINAL SINGLE POINT ENERGY      -475.548521256368
Dispersion correction            ... Starting D4
Dispersion correction           -0.021368580
FINAL SINGLE POINT ENERGY      -475.548520924509
Dispersion correction            ... Starting D4
                    ***********************HURRAY********************

CARTESIAN COORDINATES (ANGSTROEM)
---------------------------------
  C      0.520907    0.646357    3.953753
  C     -0.160882    1.232597    2.850082
  C     -0.086329    0.660194    1.593153
  C      0.673989   -0.518692    1.398701
  C      1.357698   -1.116769    2.481050
  C      1.283607   -0.545182    3.736688
  C      0.442601    1.239784    5.313238
  H      1.448679    1.338978    5.759818
  H     -0.108177    0.557061    5.991779
  H     -0.061239    2.215125    5.323387
  H     -0.743478    2.142762    3.009206
  H     -0.609746    1.112083    0.747922
  H      0.731784   -0.968550    0.404309
  H      1.941181   -2.025553    2.319555
  H      1.809374   -0.997498    4.581277
  N     -3.084323   -1.461873  -17.272535
  O     -2.705247   -2.246715  -16.544333
  O     -2.331278   -1.355049  -15.298791

 Multiplicity           Mult            ....    1
 Number of Electrons    NEL             ....   72
 Basis Dimension        Dim             ....  180

ORBITAL ENERGIES
----------------

  NO   OCC          E(Eh)            E(eV)
   0   2.0000     -19.537626      -531.6458
   1   2.0000     -19.343043      -526.3510
   2   2.0000     -14.678524      -399.4229
   3   2.0000     -10.364105      -282.0216
   4   2.0000     -10.352875      -281.7160
   5   2.0000     -10.336751      -281.2773
   6   2.0000     -10.335689      -281.2484
   7   2.0000     -10.333781      -281.1965
   8   2.0000     -10.333228      -281.1814
   9   2.0000     -10.314798      -280.6799
  10   2.0000      -1.488604       -40.5070
  11   2.0000      -1.070653       -29.1340
  12   2.0000      -0.995083       -27.0776
  13   2.0000      -0.907716       -24.7002
  14   2.0000      -0.882683       -24.0190
  15   2.0000      -0.860078       -23.4039
  16   2.0000      -0.813957       -22.1489
  17   2.0000      -0.740474       -20.1493
  18   2.0000      -0.737503       -20.0685
  19   2.0000      -0.726359       -19.7652
  20   2.0000      -0.718967       -19.5641
  21   2.0000      -0.671527       -18.2732
  22   2.0000      -0.647262       -17.6129
  23   2.0000      -0.605893       -16.4872
  24   2.0000      -0.586388       -15.9564
  25   2.0000      -0.562528       -15.3072
  26   2.0000      -0.550049       -14.9676
  27   2.0000      -0.548734       -14.9318
  28   2.0000      -0.515604       -14.0303
  29   2.0000      -0.492203       -13.3935
  30   2.0000      -0.488950       -13.3050
  31   2.0000      -0.478594       -13.0232
  32   2.0000      -0.454212       -12.3597
  33   2.0000      -0.444154       -12.0861
  34   2.0000      -0.399500       -10.8710
  35   2.0000      -0.372187       -10.1277
  36   0.0000      -0.366703        -9.9785
  37   0.0000      -0.291333        -7.9276
  38   0.0000      -0.203257        -5.5309
  39   0.0000      -0.156765        -4.2658
  40   0.0000      -0.144327        -3.9273

MULLIKEN ATOMIC CHARGES
-----------------------
   0 C :   -0.039345
   1 C :    0.033561
   2 C :    0.046315
   3 C :    0.068224
   4 C :    0.042648
   5 C :    0.036029
   6 C :    0.063044
   7 H :    0.073544
   8 H :    0.083369
   9 H :    0.052897
  10 H :    0.026400
  11 H :    0.039385
  12 H :    0.050252
  13 H :    0.039871
  14 H :    0.027530
  15 N :    0.276673
  16 O :    0.192027
  17 O :   -0.112423
Sum of atomic charges:    1.0000000

LOEWDIN ATOMIC CHARGES
----------------------
   0 C :    0.076856
   1 C :    0.012431
   2 C :    0.020138
   3 C :    0.087828
   4 C :    0.009939
   5 C :    0.025450
   6 C :   -0.030883
   7 H :    0.065568
   8 H :    0.074229
   9 H :    0.047296
  10 H :    0.048371
  11 H :    0.052065
  12 H :    0.053479
  13 H :    0.052221
  14 H :    0.048732
  15 N :    0.209888
  16 O :    0.287289
  17 O :   -0.140900

  Mayer bond orders larger than 0.100000
B(  0-C ,  1-C ) :   1.2606 B(  0-C ,  5-C ) :   1.2199 B(  0-C ,  6-C ) :   1.1029
B(  0-C , 15-N ) :   0.1029 B(  0-C , 17-O ) :   0.1395 B(  1-C ,  2-C ) :   1.4589
B(  1-C , 10-H ) :   0.9881 B(  2-C ,  3-C ) :   1.2607 B(  2-C , 11-H ) :   0.9847
B(  3-C ,  4-C ) :   1.2772 B(  3-C , 12-H ) :   0.9837 B(  3-C , 15-N ) :   0.1104
B(  3-C , 17-O ) :   0.1497 B(  4-C ,  5-C ) :   1.4685 B(  4-C , 13-H ) :   0.9860
B(  5-C , 14-H ) :   0.9912 B(  6-C ,  7-H ) :   0.9288 B(  6-C ,  8-H ) :   0.9154
B(  6-C ,  9-H ) :   0.9579 B( 15-N , 16-O ) :   1.9540 B( 15-N , 17-O ) :   0.4446
B( 16-O , 17-O ) :   0.6602

Dispersion correction           -0.021368557
FINAL SINGLE POINT ENERGY      -475.548520777815

DIPOLE MOMENT
-------------
                                X             Y             Z
Electronic contribution:     -8.26808      -6.53714     -52.71476
Nuclear contribution   :      7.91512       6.13400      51.31549
                        -----------------------------------------
Total Dipole Moment    :     -0.35296      -0.40314      -1.39928
                        -----------------------------------------
Magnitude (a.u.)       :      1.49836
Magnitude (Debye)      :      3.80852

Dispersion correction in the Hessian             ... Starting D4

VIBRATIONAL FREQUENCIES
-----------------------

Scaling factor for frequencies =  1.000000000  (already applied!)

   0:         0.00 cm**-1
   1:         0.00 cm**-1
   2:         0.00 cm**-1
   3:         0.00 cm**-1
   4:         0.00 cm**-1
   5:         0.00 cm**-1
   6:       -20.07 cm**-1 ***imaginary mode***
   7:        -5.79 cm**-1 ***imaginary mode***
   8:        -5.46 cm**-1 ***imaginary mode***
   9:         2.71 cm**-1
  10:         4.67 cm**-1
  11:        12.23 cm**-1
  12:        19.10 cm**-1
  13:       180.22 cm**-1
  14:       315.02 cm**-1
  15:       348.09 cm**-1
  16:       380.00 cm**-1
  17:       400.78 cm**-1
  18:       440.05 cm**-1
  19:       519.62 cm**-1
  20:       547.30 cm**-1
  21:       627.67 cm**-1
  22:       753.29 cm**-1
  23:       792.59 cm**-1
  24:       823.75 cm**-1
  25:       935.76 cm**-1
  26:       974.38 cm**-1
  27:      1004.57 cm**-1
  28:      1010.58 cm**-1
  29:      1018.01 cm**-1
  30:      1020.58 cm**-1
  31:      1036.45 cm**-1
  32:      1096.70 cm**-1
  33:      1154.83 cm**-1
  34:      1197.16 cm**-1
  35:      1253.58 cm**-1
  36:      1302.01 cm**-1
  37:      1352.83 cm**-1
  38:      1387.44 cm**-1
  39:      1413.12 cm**-1
  40:      1415.04 cm**-1
  41:      1452.88 cm**-1
  42:      1489.52 cm**-1
  43:      1518.85 cm**-1
  44:      1671.55 cm**-1
  45:      1872.57 cm**-1
  46:      2990.62 cm**-1
  47:      3052.68 cm**-1
  48:      3151.62 cm**-1
  49:      3193.84 cm**-1
  50:      3197.77 cm**-1
  51:      3203.60 cm**-1
  52:      3212.53 cm**-1
  53:      3217.44 cm**-1

IR SPECTRUM
-----------

 Mode   freq       eps      Int      T**2         TX        TY        TZ
       cm**-1   L/(mol*cm) km/mol    a.u.
----------------------------------------------------------------------------
  9:      2.71   0.000000    0.00  0.000000  ( 0.000000  0.000000  0.000000)
 10:      4.67   0.000000    0.00  0.000000  ( 0.000000  0.000000  0.000000)
 11:     12.23   0.000876    4.43  0.022357  ( 0.117655  0.064281 -0.066199)
 12:     19.10   0.000488    2.47  0.007972  (-0.087564 -0.017225  0.002807)
 13:    180.22   0.000253    1.28  0.000437  (-0.015452 -0.013318  0.004599)
 14:    315.02   0.040795  206.16  0.040413  ( 0.047247  0.017423  0.194620)
 15:    348.09   0.001616    8.17  0.001449  (-0.009855  0.003557 -0.036597)
 16:    380.00   0.000002    0.01  0.000002  ( 0.000980 -0.000901 -0.000029)
 17:    400.78   0.524041  2648.29  0.408037  ( 0.104086  0.069178  0.626433)
 18:    440.05   0.000274    1.38  0.000194  (-0.010554 -0.007388  0.005320)
 19:    519.62   0.012123   61.27  0.007281  (-0.012559 -0.008662 -0.083952)
 20:    547.30   0.001923    9.72  0.001097  (-0.011299  0.006278 -0.030491)
 21:    627.67   0.004685   23.68  0.002329  (-0.036965 -0.024513  0.019026)
 22:    753.29   0.006730   34.01  0.002788  (-0.043013 -0.030569  0.001818)
 23:    792.59   0.018519   93.59  0.007292  ( 0.018645  0.010421  0.082676)
 24:    823.75   0.000070    0.35  0.000026  ( 0.004204  0.002269  0.001889)
 25:    935.76   0.003873   19.57  0.001292  ( 0.000371  0.002033  0.035881)
 26:    974.38   0.052844  267.05  0.016924  ( 0.020018  0.012846  0.127900)
 27:   1004.57   0.027487  138.91  0.008538  (-0.010277 -0.003518 -0.091763)
 28:   1010.58   0.002890   14.61  0.000892  ( 0.020544  0.009290 -0.019598)
 29:   1018.01   0.000255    1.29  0.000078  (-0.005763 -0.002715  0.006142)
 30:   1020.58   0.007702   38.92  0.002355  (-0.009181  0.000763 -0.047645)
 31:   1036.45   0.000079    0.40  0.000024  ( 0.000893  0.001112  0.004673)
 32:   1096.70   0.003786   19.13  0.001077  ( 0.017610 -0.018449  0.020660)
 33:   1154.83   0.007088   35.82  0.001915  ( 0.006038  0.005849  0.042950)
 34:   1197.16   0.089522  452.41  0.023336  (-0.024049 -0.015423 -0.150065)
 35:   1253.58   0.083017  419.53  0.020666  (-0.019993 -0.017071 -0.141333)
 36:   1302.01   0.031608  159.73  0.007576  ( 0.012010  0.010739  0.085535)
 37:   1352.83   0.060534  305.91  0.013964  (-0.013877 -0.008238 -0.117060)
 38:   1387.44   0.000775    3.92  0.000174  (-0.011991  0.005458 -0.000922)
 39:   1413.12   0.002027   10.24  0.000448  ( 0.015412  0.009916 -0.010572)
 40:   1415.04   0.003906   19.74  0.000861  ( 0.020828 -0.013878  0.015333)
 41:   1452.88   0.029462  148.89  0.006328  (-0.012245  0.003103 -0.078540)
 42:   1489.52   0.053635  271.05  0.011237  (-0.005451 -0.029519 -0.101665)
 43:   1518.85   0.003936   19.89  0.000809  (-0.016137  0.018602 -0.014220)
 44:   1671.55   0.539652  2727.18  0.100749  (-0.050629 -0.032662 -0.311638)
 45:   1872.57   0.776447  3923.84  0.129394  (-0.063542 -0.058633 -0.349169)
 46:   2990.62   0.107539  543.46  0.011221  (-0.011688 -0.014029 -0.104345)
 47:   3052.68   0.000674    3.41  0.000069  ( 0.004284  0.002260  0.006744)
 48:   3151.62   0.021229  107.28  0.002102  ( 0.003684  0.010262  0.044533)
 49:   3193.84   0.000865    4.37  0.000085  ( 0.000944  0.001653  0.008995)
 50:   3197.77   0.000069    0.35  0.000007  (-0.000298 -0.000410 -0.002550)
 51:   3203.60   0.002429   12.27  0.000237  ( 0.002299  0.001785  0.015103)
 52:   3212.53   0.000102    0.51  0.000010  (-0.001668  0.001846 -0.001919)
 53:   3217.44   0.003175   16.04  0.000308  ( 0.002765  0.001843  0.017230)

--------------------------
THERMOCHEMISTRY AT 298.15K
--------------------------

Temperature         ... 298.15 K
Pressure            ... 1.00 atm
Total Mass          ... 138.15 AMU

Throughout the following assumptions are being made:
  (1) The electronic state is orbitally nondegenerate
  (2) There are no thermally accessible electronically excited states
  (3) Hindered rotations indicated by low frequency modes are not
      treated as such but are treated as vibrations and this may
      cause some error
  (4) All equations used are the standard statistical mechanics
      equations for an ideal gas
  (5) All vibrations are strictly harmonic

freq.       2.71  E(vib)   ...       0.59
freq.       4.67  E(vib)   ...       0.59
freq.      12.23  E(vib)   ...       0.58
freq.      19.10  E(vib)   ...       0.57
freq.     180.22  E(vib)   ...       0.37
freq.     315.02  E(vib)   ...       0.25
freq.     348.09  E(vib)   ...       0.23
freq.     380.00  E(vib)   ...       0.21
freq.     400.78  E(vib)   ...       0.19
freq.     440.05  E(vib)   ...       0.17
freq.     519.62  E(vib)   ...       0.13
freq.     547.30  E(vib)   ...       0.12
freq.     627.67  E(vib)   ...       0.09
freq.     753.29  E(vib)   ...       0.06
freq.     792.59  E(vib)   ...       0.05
freq.     823.75  E(vib)   ...       0.05
freq.     935.76  E(vib)   ...       0.03
freq.     974.38  E(vib)   ...       0.03
freq.    1004.57  E(vib)   ...       0.02
freq.    1010.58  E(vib)   ...       0.02
freq.    1018.01  E(vib)   ...       0.02
freq.    1020.58  E(vib)   ...       0.02
freq.    1036.45  E(vib)   ...       0.02
freq.    1096.70  E(vib)   ...       0.02
freq.    1154.83  E(vib)   ...       0.01
freq.    1197.16  E(vib)   ...       0.01
freq.    1253.58  E(vib)   ...       0.01
freq.    1302.01  E(vib)   ...       0.01
freq.    1352.83  E(vib)   ...       0.01
freq.    1387.44  E(vib)   ...       0.00
freq.    1413.12  E(vib)   ...       0.00
freq.    1415.04  E(vib)   ...       0.00
freq.    1452.88  E(vib)   ...       0.00
freq.    1489.52  E(vib)   ...       0.00
freq.    1518.85  E(vib)   ...       0.00
freq.    1671.55  E(vib)   ...       0.00
freq.    1872.57  E(vib)   ...       0.00
freq.    2990.62  E(vib)   ...       0.00
freq.    3052.68  E(vib)   ...       0.00
freq.    3151.62  E(vib)   ...       0.00
freq.    3193.84  E(vib)   ...       0.00
freq.    3197.77  E(vib)   ...       0.00
freq.    3203.60  E(vib)   ...       0.00
freq.    3212.53  E(vib)   ...       0.00
freq.    3217.44  E(vib)   ...       0.00

------------
INNER ENERGY
------------

The inner energy is: U= E(el) + E(ZPE) + E(vib) + E(rot) + E(trans)
    E(el)   - is the total energy from the electronic structure calculation
              = E(kin-el) + E(nuc-el) + E(el-el) + E(nuc-nuc)
    E(ZPE)  - the the zero temperature vibrational energy from the frequency calculation
    E(vib)  - the the finite temperature correction to E(ZPE) due to population
              of excited vibrational states
    E(rot)  - is the rotational thermal energy
    E(trans)- is the translational thermal energy

Summary of contributions to the inner energy U:
Electronic energy                ...   -475.54852078 Eh
Zero point energy                ...      0.13205531 Eh      82.87 kcal/mol
Thermal vibrational correction   ...      0.00714646 Eh       4.48 kcal/mol
Thermal rotational correction    ...      0.00141627 Eh       0.89 kcal/mol
Thermal translational correction ...      0.00141627 Eh       0.89 kcal/mol
-----------------------------------------------------------------------
Total thermal energy                   -475.40648647 Eh

Summary of corrections to the electronic energy:
(perhaps to be used in another calculation)
Total thermal correction                  0.00997900 Eh       6.26 kcal/mol
Non-thermal (ZPE) correction              0.13205531 Eh      82.87 kcal/mol
-----------------------------------------------------------------------
Total correction                          0.14203431 Eh      89.13 kcal/mol

--------
ENTHALPY
--------

The enthalpy is H = U + kB*T
                kB is Boltzmann's constant
Total free energy                 ...   -475.40648647 Eh
Thermal Enthalpy correction       ...      0.00094421 Eh       0.59 kcal/mol
-----------------------------------------------------------------------
Total Enthalpy                    ...   -475.40554226 Eh

Note: Only C1 symmetry has been detected, increase convergence thresholds
      if your molecule has a higher symmetry. Symmetry factor of 1.0 is
      used for the rotational entropy correction.

Note: Rotational entropy computed according to Herzberg
Infrared and Raman Spectra, Chapter V,1, Van Nostrand Reinhold, 1945
Point Group:  C1, Symmetry Number:   1
Rotational constants in cm-1:     0.143382     0.001378     0.001365

Vibrational entropy computed according to the QRRHO of S. Grimme
Chem.Eur.J. 2012 18 9955

-------
ENTROPY
-------

The entropy contributions are T*S = T*(S(el)+S(vib)+S(rot)+S(trans))
     S(el)   - electronic entropy
     S(vib)  - vibrational entropy
     S(rot)  - rotational entropy
     S(trans)- translational entropy
The entropies will be listed as multiplied by the temperature to get
units of energy

Electronic entropy                ...      0.00000000 Eh      0.00 kcal/mol
Vibrational entropy               ...      0.01552430 Eh      9.74 kcal/mol
Rotational entropy                ...      0.01665160 Eh     10.45 kcal/mol
Translational entropy             ...      0.01932890 Eh     12.13 kcal/mol
-----------------------------------------------------------------------
Final entropy term                ...      0.05150479 Eh     32.32 kcal/mol

In case the symmetry of your molecule has not been determined correctly
or in case you have a reason to use a different symmetry number we print
out the resulting rotational entropy values for sn=1,12 :
 --------------------------------------------------------
|  sn= 1 | S(rot)=       0.01665160 Eh     10.45 kcal/mol|
|  sn= 2 | S(rot)=       0.01599714 Eh     10.04 kcal/mol|
|  sn= 3 | S(rot)=       0.01561431 Eh      9.80 kcal/mol|
|  sn= 4 | S(rot)=       0.01534269 Eh      9.63 kcal/mol|
|  sn= 5 | S(rot)=       0.01513200 Eh      9.50 kcal/mol|
|  sn= 6 | S(rot)=       0.01495985 Eh      9.39 kcal/mol|
|  sn= 7 | S(rot)=       0.01481431 Eh      9.30 kcal/mol|
|  sn= 8 | S(rot)=       0.01468823 Eh      9.22 kcal/mol|
|  sn= 9 | S(rot)=       0.01457702 Eh      9.15 kcal/mol|
|  sn=10 | S(rot)=       0.01447754 Eh      9.08 kcal/mol|
|  sn=11 | S(rot)=       0.01438755 Eh      9.03 kcal/mol|
|  sn=12 | S(rot)=       0.01430540 Eh      8.98 kcal/mol|
 --------------------------------------------------------

-------------------
GIBBS FREE ENERGY
-------------------

                             ****ORCA TERMINATED NORMALLY****
TOTAL RUN TIME: 2 days 2 hours 59 minutes 32 seconds 809 msec
