                         Program Version 5.0.4 -  RELEASE  -
|  1> !B3LYP DEF2-QZVPP
|  2>
|  3> %scf
|  4> convergence tight
|  5> end
|  6>
|  7> * xyz 0 1
|  8>   C   -6.35529566713189      0.98183690763207     -0.00001504036478
|  9>   C   -7.70369862552641      0.57957456761231     -0.00000173744009
| 10>   C   -8.02102163499719     -0.77812943500883      0.00001944975110
| 11>   C   -7.00414212151022     -1.73832946214561      0.00002743447097
| 12>   C   -5.66330053841805     -1.34054476427431      0.00001396353728
| 13>   C   -5.33361031358612      0.01419348174697     -0.00000730718435
| 14>   C   -6.02185993035994      2.37866436898736     -0.00003589559077
| 15>   H   -8.49093284139212      1.33596053577513     -0.00000808213751
| 16>   H   -9.06839558616840     -1.08907636566259      0.00002985217797
| 17>   H   -7.25784524787421     -2.80130133697912      0.00004422468217
| 18>   H   -4.86880131166015     -2.09058333047744      0.00002017846662
| 19>   H   -4.28975746602226      0.33378924079070     -0.00001788378122
| 20>   N   -5.75052871535300      3.50757559200336     -0.00004915658739
| 21> **                         ****END OF INPUT****

CARTESIAN COORDINATES (ANGSTROEM)
---------------------------------
  C     -6.355296    0.981837   -0.000015
  C     -7.703699    0.579575   -0.000002
  C     -8.021022   -0.778129    0.000019
  C     -7.004142   -1.738329    0.000027
  C     -5.663301   -1.340545    0.000014
  C     -5.333610    0.014193   -0.000007
  C     -6.021860    2.378664   -0.000036
  H     -8.490933    1.335961   -0.000008
  H     -9.068396   -1.089076    0.000030
  H     -7.257845   -2.801301    0.000044
  H     -4.868801   -2.090583    0.000020
  H     -4.289757    0.333789   -0.000018
  N     -5.750529    3.507576   -0.000049

 Total Charge           Charge          ....    0
 Multiplicity           Mult            ....    1
 Number of Electrons    NEL             ....   54
 Basis Dimension        Dim             ....  606

ORBITAL ENERGIES
----------------

  NO   OCC          E(Eh)            E(eV)
   0   2.0000     -14.319766      -389.6606
   1   2.0000     -10.235113      -278.5116
   2   2.0000     -10.216728      -278.0113
   3   2.0000     -10.212860      -277.9060
   4   2.0000     -10.212848      -277.9057
   5   2.0000     -10.208635      -277.7911
   6   2.0000     -10.206685      -277.7380
   7   2.0000     -10.206601      -277.7357
   8   2.0000      -0.913005       -24.8441
   9   2.0000      -0.882972       -24.0269
  10   2.0000      -0.789944       -21.4955
  11   2.0000      -0.775649       -21.1065
  12   2.0000      -0.659291       -17.9402
  13   2.0000      -0.634936       -17.2775
  14   2.0000      -0.570595       -15.5267
  15   2.0000      -0.511303       -13.9133
  16   2.0000      -0.486663       -13.2428
  17   2.0000      -0.463663       -12.6169
  18   2.0000      -0.450219       -12.2511
  19   2.0000      -0.413225       -11.2444
  20   2.0000      -0.391077       -10.6418
  21   2.0000      -0.379356       -10.3228
  22   2.0000      -0.366120        -9.9626
  23   2.0000      -0.356694        -9.7061
  24   2.0000      -0.339331        -9.2337
  25   2.0000      -0.285146        -7.7592
  26   2.0000      -0.276028        -7.5111
  27   0.0000      -0.065480        -1.7818
  28   0.0000      -0.041604        -1.1321
  29   0.0000       0.009408         0.2560
  30   0.0000       0.023301         0.6340
  31   0.0000       0.035432         0.9641

MULLIKEN ATOMIC CHARGES
-----------------------
   0 C :    0.232860
   1 C :   -0.080434
   2 C :   -0.055588
   3 C :   -0.035304
   4 C :   -0.057666
   5 C :   -0.078833
   6 C :   -0.122826
   7 H :    0.084037
   8 H :    0.067705
   9 H :    0.067254
  10 H :    0.068625
  11 H :    0.083761
  12 N :   -0.173590
Sum of atomic charges:    0.0000000

LOEWDIN ATOMIC CHARGES
----------------------
   0 C :   -0.149775
   1 C :    0.102313
   2 C :    0.074523
   3 C :    0.078265
   4 C :    0.074502
   5 C :    0.102403
   6 C :   -0.235392
   7 H :   -0.042477
   8 H :   -0.051117
   9 H :   -0.051346
  10 H :   -0.051058
  11 H :   -0.042512
  12 N :    0.191671

  Mayer bond orders larger than 0.100000
B(  0-C ,  1-C ) :   1.2349 B(  0-C ,  5-C ) :   1.2340 B(  0-C ,  6-C ) :   0.9080
B(  1-C ,  2-C ) :   1.3317 B(  1-C ,  7-H ) :   0.9574 B(  2-C ,  3-C ) :   1.3168
B(  2-C ,  8-H ) :   0.9664 B(  3-C ,  4-C ) :   1.3175 B(  3-C ,  9-H ) :   0.9652
B(  4-C ,  5-C ) :   1.3324 B(  4-C , 10-H ) :   0.9666 B(  5-C , 11-H ) :   0.9573
B(  6-C , 12-N ) :   2.9327

FINAL SINGLE POINT ENERGY      -324.435659175667

DIPOLE MOMENT
-------------
                                X             Y             Z
Electronic contribution:      1.02813       4.30891      -0.00007
Nuclear contribution   :     -1.46091      -6.11812       0.00009
                        -----------------------------------------
Total Dipole Moment    :     -0.43278      -1.80921       0.00002
                        -----------------------------------------
Magnitude (a.u.)       :      1.86025
Magnitude (Debye)      :      4.72839

Rotational constants in cm-1:     0.187863     0.051251     0.040266
Rotational constants in MHz :  5631.980927  1536.463194  1207.142200

                             ****ORCA TERMINATED NORMALLY****
TOTAL RUN TIME: 0 days 0 hours 52 minutes 8 seconds 309 msec
