                         Program Version 5.0.4 -  RELEASE  -
|  1> !B3LYP DEF2-SVP OPT FREQ D4 SOSCF
|  2>
|  3> %geom
|  4> maxIter 1000
|  5> end
|  6>
|  7> * xyz 1 1
|  8>   C   -2.77404408552893      1.40823556784416     -1.58275628446142
|  9>   C   -3.68855652445609      0.41776590453195     -2.08276638275092
| 10>   C   -3.62615900420557     -0.89104712097454     -1.65458310844457
| 11>   C   -2.65634756712453     -1.28458588381131     -0.70995412031480
| 12>   C   -1.74545952669431     -0.34282093184706     -0.19907327751600
| 13>   C   -1.79282896958412      0.97448024254364     -0.61715365721693
| 14>   H   -4.43747948743864      0.73047365645836     -2.81429452769826
| 15>   H   -4.33199953464792     -1.62462722945195     -2.04967205089044
| 16>   H   -2.60685270746279     -2.32104708899314     -0.37019884656790
| 17>   H   -0.98752211234996     -0.62565467114379      0.53216726991758
| 18>   H   11.66643897151902     -3.07992257232304     21.41135824804946
| 19>   N   -2.85695286923176      2.66503386183143     -2.01389611809195
| 20>   H   -3.56117447418632      2.93499407260808     -2.69449783158074
| 21>   H   -2.18700398248919      3.34324348912682     -1.63481472327729
| 22>   N   -0.80890457732437      1.91024386415495     -0.04158245900012
| 23>   O   -0.84945882420661      3.08195005368059     -0.41529187674666
| 24>   O   -0.02021472458784      1.47040478576483      0.76363974659097
| 25> **                         ****END OF INPUT****
 Total Charge           Charge          ....    1
 Multiplicity           Mult            ....    1
 Number of Electrons    NEL             ....   72
Dispersion correction           -0.026276946
FINAL SINGLE POINT ENERGY      -491.665104782827
Dispersion correction            ... Starting D4
Dispersion correction           -0.026277248
FINAL SINGLE POINT ENERGY      -491.665112022753
Dispersion correction            ... Starting D4
Dispersion correction           -0.026277000
FINAL SINGLE POINT ENERGY      -491.665119253475
Dispersion correction            ... Starting D4
FINAL SINGLE POINT ENERGY      -491.665126447805
FINAL SINGLE POINT ENERGY      -491.665133611591
FINAL SINGLE POINT ENERGY      -491.665140880412
FINAL SINGLE POINT ENERGY      -491.665147925253
FINAL SINGLE POINT ENERGY      -491.665154961017
FINAL SINGLE POINT ENERGY      -491.665161922626
FINAL SINGLE POINT ENERGY      -491.665168720597
FINAL SINGLE POINT ENERGY      -491.665615510848
FINAL SINGLE POINT ENERGY      -491.665619531336
FINAL SINGLE POINT ENERGY      -491.665623536319
FINAL SINGLE POINT ENERGY      -491.665627510726
FINAL SINGLE POINT ENERGY      -491.665631474261
FINAL SINGLE POINT ENERGY      -491.665635402615
FINAL SINGLE POINT ENERGY      -491.665639330147
Dispersion correction           -0.026282307
FINAL SINGLE POINT ENERGY      -491.665643210045
Dispersion correction            ... Starting D4
Dispersion correction           -0.026282223
FINAL SINGLE POINT ENERGY      -491.665647080410
Dispersion correction            ... Starting D4
                    ***********************HURRAY********************

CARTESIAN COORDINATES (ANGSTROEM)
---------------------------------
  C     -3.130377    1.503164   -2.149045
  C     -4.044973    0.510004   -2.643053
  C     -3.979098   -0.797602   -2.211452
  C     -3.005514   -1.187144   -1.269159
  C     -2.094403   -0.242594   -0.764186
  C     -2.145302    1.073545   -1.185814
  H     -4.796904    0.819545   -3.372830
  H     -4.685232   -1.533280   -2.602085
  H     -2.953265   -2.222556   -0.926663
  H     -1.333415   -0.522034   -0.034833
  H     17.325317   -4.628783   30.460646
  N     -3.216724    2.758850   -2.583343
  H     -3.923799    3.025790   -3.262076
  H     -2.546462    3.438988   -2.208487
  N     -1.160954    2.012328   -0.616035
  O     -1.204102    3.182904   -0.993147
  O     -0.369311    1.575995    0.188193

 Multiplicity           Mult            ....    1
 Number of Electrons    NEL             ....   72
 Basis Dimension        Dim             ....  175

ORBITAL ENERGIES
----------------

  NO   OCC          E(Eh)            E(eV)
   0   2.0000     -19.290783      -524.9289
   1   2.0000     -19.290384      -524.9180
   2   2.0000     -14.690746      -399.7555
   3   2.0000     -14.534850      -395.5134
   4   2.0000     -10.429134      -283.7912
   5   2.0000     -10.396907      -282.9142
   6   2.0000     -10.364660      -282.0367
   7   2.0000     -10.363646      -282.0092
   8   2.0000     -10.360903      -281.9345
   9   2.0000     -10.356817      -281.8233
  10   2.0000      -1.352855       -36.8130
  11   2.0000      -1.180163       -32.1139
  12   2.0000      -1.108357       -30.1599
  13   2.0000      -1.011611       -27.5273
  14   2.0000      -0.943796       -25.6820
  15   2.0000      -0.894017       -24.3274
  16   2.0000      -0.833521       -22.6813
  17   2.0000      -0.782366       -21.2892
  18   2.0000      -0.755563       -20.5599
  19   2.0000      -0.707320       -19.2472
  20   2.0000      -0.679381       -18.4869
  21   2.0000      -0.672656       -18.3039
  22   2.0000      -0.670437       -18.2435
  23   2.0000      -0.641169       -17.4471
  24   2.0000      -0.624031       -16.9807
  25   2.0000      -0.597319       -16.2539
  26   2.0000      -0.593270       -16.1437
  27   2.0000      -0.565495       -15.3879
  28   2.0000      -0.537828       -14.6350
  29   2.0000      -0.519464       -14.1353
  30   2.0000      -0.489807       -13.3283
  31   2.0000      -0.438620       -11.9355
  32   2.0000      -0.437743       -11.9116
  33   2.0000      -0.428683       -11.6650
  34   2.0000      -0.424513       -11.5516
  35   2.0000      -0.361308        -9.8317
  36   0.0000      -0.358567        -9.7571
  37   0.0000      -0.215512        -5.8644
  38   0.0000      -0.162107        -4.4112
  39   0.0000      -0.138285        -3.7629
  40   0.0000      -0.077099        -2.0980

MULLIKEN ATOMIC CHARGES
-----------------------
   0 C :   -0.034583
   1 C :    0.011404
   2 C :    0.065163
   3 C :    0.070822
   4 C :   -0.009598
   5 C :    0.181207
   6 H :    0.022410
   7 H :    0.050375
   8 H :    0.057473
   9 H :    0.053469
  10 H :    0.271065
  11 N :    0.096183
  12 H :    0.162486
  13 H :    0.179510
  14 N :    0.255571
  15 O :   -0.255115
  16 O :   -0.177842
Sum of atomic charges:    1.0000000

LOEWDIN ATOMIC CHARGES
----------------------
   0 C :    0.073425
   1 C :    0.011777
   2 C :    0.029688
   3 C :    0.060569
   4 C :    0.041644
   5 C :   -0.021897
   6 H :    0.052138
   7 H :    0.059216
   8 H :    0.058931
   9 H :    0.063472
  10 H :    0.271065
  11 N :    0.151010
  12 H :    0.110889
  13 H :    0.090128
  14 N :    0.282890
  15 O :   -0.194358
  16 O :   -0.140585

  Mayer bond orders larger than 0.100000
B(  0-C ,  1-C ) :   1.1731 B(  0-C ,  5-C ) :   1.1536 B(  0-C , 11-N ) :   1.5292
B(  1-C ,  2-C ) :   1.4621 B(  1-C ,  6-H ) :   0.9897 B(  1-C , 10-H ) :   0.1498
B(  2-C ,  3-C ) :   1.2723 B(  2-C ,  7-H ) :   0.9851 B(  3-C ,  4-C ) :   1.2482
B(  3-C ,  8-H ) :   0.9852 B(  3-C , 10-H ) :   0.2351 B(  4-C ,  5-C ) :   1.4677
B(  4-C ,  9-H ) :   0.9796 B(  5-C , 10-H ) :   0.1080 B(  5-C , 14-N ) :   0.8747
B( 10-H , 11-N ) :   0.2533 B( 11-N , 12-H ) :   0.9090 B( 11-N , 13-H ) :   0.8688
B( 13-H , 15-O ) :   0.1009 B( 14-N , 15-O ) :   1.4434 B( 14-N , 16-O ) :   1.5916
B( 15-O , 16-O ) :   0.2826

Dispersion correction           -0.026282267
FINAL SINGLE POINT ENERGY      -491.665647086067

DIPOLE MOMENT
-------------
                                X             Y             Z
Electronic contribution:     -4.13243       5.01798     -10.21847
Nuclear contribution   :     11.96195      -8.62782      24.61505
                        -----------------------------------------
Total Dipole Moment    :      7.82952      -3.60983      14.39658
                        -----------------------------------------
Magnitude (a.u.)       :     16.78075
Magnitude (Debye)      :     42.65329

Dispersion correction in the Hessian             ... Starting D4

VIBRATIONAL FREQUENCIES
-----------------------

Scaling factor for frequencies =  1.000000000  (already applied!)

   0:         0.00 cm**-1
   1:         0.00 cm**-1
   2:         0.00 cm**-1
   3:         0.00 cm**-1
   4:         0.00 cm**-1
   5:         0.00 cm**-1
   6:        -1.92 cm**-1 ***imaginary mode***
   7:         3.50 cm**-1
   8:         5.23 cm**-1
   9:        61.89 cm**-1
  10:       134.43 cm**-1
  11:       234.10 cm**-1
  12:       300.03 cm**-1
  13:       382.79 cm**-1
  14:       400.35 cm**-1
  15:       414.32 cm**-1
  16:       499.25 cm**-1
  17:       543.39 cm**-1
  18:       560.89 cm**-1
  19:       589.56 cm**-1
  20:       669.98 cm**-1
  21:       676.48 cm**-1
  22:       740.76 cm**-1
  23:       775.37 cm**-1
  24:       797.47 cm**-1
  25:       840.92 cm**-1
  26:       889.39 cm**-1
  27:       895.58 cm**-1
  28:      1004.37 cm**-1
  29:      1017.28 cm**-1
  30:      1033.53 cm**-1
  31:      1054.01 cm**-1
  32:      1107.12 cm**-1
  33:      1163.88 cm**-1
  34:      1180.75 cm**-1
  35:      1300.47 cm**-1
  36:      1356.99 cm**-1
  37:      1399.53 cm**-1
  38:      1416.77 cm**-1
  39:      1489.43 cm**-1
  40:      1504.98 cm**-1
  41:      1553.46 cm**-1
  42:      1590.49 cm**-1
  43:      1654.27 cm**-1
  44:      1700.28 cm**-1
  45:      3196.83 cm**-1
  46:      3211.57 cm**-1
  47:      3220.66 cm**-1
  48:      3233.72 cm**-1
  49:      3406.96 cm**-1
  50:      3629.41 cm**-1

IR SPECTRUM
-----------

 Mode   freq       eps      Int      T**2         TX        TY        TZ
       cm**-1   L/(mol*cm) km/mol    a.u.
----------------------------------------------------------------------------
  7:      3.50   0.000000    0.00  0.000000  ( 0.000000  0.000000  0.000000)
  8:      5.23   0.005829   29.46  0.347715  (-0.423904 -0.225009  0.342624)
  9:     61.89   0.000007    0.03  0.000033  ( 0.003466 -0.000973 -0.004531)
 10:    134.43   0.000687    3.47  0.001594  ( 0.025574 -0.008600 -0.029435)
 11:    234.10   0.000470    2.38  0.000626  (-0.015701  0.005294  0.018760)
 12:    300.03   0.000895    4.52  0.000931  (-0.009678 -0.019425 -0.021439)
 13:    382.79   0.011104   56.12  0.009053  ( 0.061308 -0.005544  0.072548)
 14:    400.35   0.014233   71.93  0.011095  ( 0.054797 -0.003123  0.089900)
 15:    414.32   0.001009    5.10  0.000760  (-0.017251  0.005782  0.020705)
 16:    499.25   0.001145    5.79  0.000716  (-0.016868  0.005762  0.019954)
 17:    543.39   0.000746    3.77  0.000428  (-0.005133  0.013026 -0.015242)
 18:    560.89   0.049465  249.98  0.027521  ( 0.082900 -0.033086  0.139835)
 19:    589.56   0.012769   64.53  0.006759  (-0.052092  0.017530  0.061139)
 20:    669.98   0.009077   45.87  0.004228  (-0.029325  0.018975 -0.054842)
 21:    676.48   0.010227   51.68  0.004718  ( 0.043257 -0.014473 -0.051355)
 22:    740.76   0.003824   19.33  0.001611  ( 0.025780 -0.008711 -0.029504)
 23:    775.37   0.008023   40.54  0.003229  ( 0.036421 -0.012332 -0.041837)
 24:    797.47   0.008985   45.41  0.003516  ( 0.037802 -0.012846 -0.043840)
 25:    840.92   0.050949  257.48  0.018907  (-0.064935  0.030085 -0.117412)
 26:    889.39   0.015088   76.25  0.005294  ( 0.012141 -0.043695  0.056898)
 27:    895.58   0.000014    0.07  0.000005  (-0.001327  0.000551  0.001703)
 28:   1004.37   0.000344    1.74  0.000107  ( 0.006796 -0.002322 -0.007429)
 29:   1017.28   0.008067   40.77  0.002475  ( 0.029632 -0.010484  0.038558)
 30:   1033.53   0.000076    0.39  0.000023  (-0.003066  0.001139  0.003521)
 31:   1054.01   0.026007  131.43  0.007700  (-0.040909  0.017173 -0.075708)
 32:   1107.12   0.009972   50.39  0.002811  (-0.035806 -0.020005 -0.033593)
 33:   1163.88   0.083106  419.98  0.022283  (-0.085569  0.016269 -0.121227)
 34:   1180.75   0.010488   53.00  0.002772  (-0.030555  0.007272 -0.042254)
 35:   1300.47   0.012584   63.59  0.003020  ( 0.023906 -0.019685  0.045394)
 36:   1356.99   0.034510  174.40  0.007936  ( 0.002000  0.076107 -0.046258)
 37:   1399.53   0.138551  700.18  0.030894  (-0.079191  0.036449 -0.152624)
 38:   1416.77   0.017059   86.21  0.003757  ( 0.005864 -0.044568  0.041674)
 39:   1489.43   0.161027  813.76  0.033738  (-0.084727  0.033131 -0.159567)
 40:   1504.98   0.007748   39.15  0.001607  ( 0.027326  0.014319  0.025589)
 41:   1553.46   0.004424   22.36  0.000889  ( 0.009690 -0.018984  0.020842)
 42:   1590.49   0.091571  462.76  0.017967  ( 0.057559 -0.084306  0.086869)
 43:   1654.27   0.677182  3422.20  0.127744  ( 0.181316 -0.061727  0.301759)
 44:   1700.28   0.170809  863.20  0.031350  ( 0.092278 -0.061627  0.137973)
 45:   3196.83   0.000065    0.33  0.000006  ( 0.001079  0.002184 -0.000661)
 46:   3211.57   0.001649    8.33  0.000160  ( 0.006215 -0.001872  0.010866)
 47:   3220.66   0.000747    3.77  0.000072  ( 0.005675  0.005668  0.002837)
 48:   3233.72   0.001226    6.20  0.000118  ( 0.001983  0.002133  0.010480)
 49:   3406.96   0.842647  4258.39  0.077183  (-0.119570  0.101125 -0.229477)
 50:   3629.41   0.170835  863.33  0.014689  ( 0.073625 -0.022263  0.093661)

--------------------------
THERMOCHEMISTRY AT 298.15K
--------------------------

Temperature         ... 298.15 K
Pressure            ... 1.00 atm
Total Mass          ... 139.13 AMU

Throughout the following assumptions are being made:
  (1) The electronic state is orbitally nondegenerate
  (2) There are no thermally accessible electronically excited states
  (3) Hindered rotations indicated by low frequency modes are not
      treated as such but are treated as vibrations and this may
      cause some error
  (4) All equations used are the standard statistical mechanics
      equations for an ideal gas
  (5) All vibrations are strictly harmonic

freq.       3.50  E(vib)   ...       0.59
freq.       5.23  E(vib)   ...       0.59
freq.      61.89  E(vib)   ...       0.51
freq.     134.43  E(vib)   ...       0.42
freq.     234.10  E(vib)   ...       0.32
freq.     300.03  E(vib)   ...       0.26
freq.     382.79  E(vib)   ...       0.20
freq.     400.35  E(vib)   ...       0.19
freq.     414.32  E(vib)   ...       0.19
freq.     499.25  E(vib)   ...       0.14
freq.     543.39  E(vib)   ...       0.12
freq.     560.89  E(vib)   ...       0.11
freq.     589.56  E(vib)   ...       0.10
freq.     669.98  E(vib)   ...       0.08
freq.     676.48  E(vib)   ...       0.08
freq.     740.76  E(vib)   ...       0.06
freq.     775.37  E(vib)   ...       0.05
freq.     797.47  E(vib)   ...       0.05
freq.     840.92  E(vib)   ...       0.04
freq.     889.39  E(vib)   ...       0.04
freq.     895.58  E(vib)   ...       0.03
freq.    1004.37  E(vib)   ...       0.02
freq.    1017.28  E(vib)   ...       0.02
freq.    1033.53  E(vib)   ...       0.02
freq.    1054.01  E(vib)   ...       0.02
freq.    1107.12  E(vib)   ...       0.02
freq.    1163.88  E(vib)   ...       0.01
freq.    1180.75  E(vib)   ...       0.01
freq.    1300.47  E(vib)   ...       0.01
freq.    1356.99  E(vib)   ...       0.01
freq.    1399.53  E(vib)   ...       0.00
freq.    1416.77  E(vib)   ...       0.00
freq.    1489.43  E(vib)   ...       0.00
freq.    1504.98  E(vib)   ...       0.00
freq.    1553.46  E(vib)   ...       0.00
freq.    1590.49  E(vib)   ...       0.00
freq.    1654.27  E(vib)   ...       0.00
freq.    1700.28  E(vib)   ...       0.00
freq.    3196.83  E(vib)   ...       0.00
freq.    3211.57  E(vib)   ...       0.00
freq.    3220.66  E(vib)   ...       0.00
freq.    3233.72  E(vib)   ...       0.00
freq.    3406.96  E(vib)   ...       0.00
freq.    3629.41  E(vib)   ...       0.00

------------
INNER ENERGY
------------

The inner energy is: U= E(el) + E(ZPE) + E(vib) + E(rot) + E(trans)
    E(el)   - is the total energy from the electronic structure calculation
              = E(kin-el) + E(nuc-el) + E(el-el) + E(nuc-nuc)
    E(ZPE)  - the the zero temperature vibrational energy from the frequency calculation
    E(vib)  - the the finite temperature correction to E(ZPE) due to population
              of excited vibrational states
    E(rot)  - is the rotational thermal energy
    E(trans)- is the translational thermal energy

Summary of contributions to the inner energy U:
Electronic energy                ...   -491.66564709 Eh
Zero point energy                ...      0.12038394 Eh      75.54 kcal/mol
Thermal vibrational correction   ...      0.00691715 Eh       4.34 kcal/mol
Thermal rotational correction    ...      0.00141627 Eh       0.89 kcal/mol
Thermal translational correction ...      0.00141627 Eh       0.89 kcal/mol
-----------------------------------------------------------------------
Total thermal energy                   -491.53551345 Eh

Summary of corrections to the electronic energy:
(perhaps to be used in another calculation)
Total thermal correction                  0.00974970 Eh       6.12 kcal/mol
Non-thermal (ZPE) correction              0.12038394 Eh      75.54 kcal/mol
-----------------------------------------------------------------------
Total correction                          0.13013364 Eh      81.66 kcal/mol

--------
ENTHALPY
--------

The enthalpy is H = U + kB*T
                kB is Boltzmann's constant
Total free energy                 ...   -491.53551345 Eh
Thermal Enthalpy correction       ...      0.00094421 Eh       0.59 kcal/mol
-----------------------------------------------------------------------
Total Enthalpy                    ...   -491.53456924 Eh

Note: Only C1 symmetry has been detected, increase convergence thresholds
      if your molecule has a higher symmetry. Symmetry factor of 1.0 is
      used for the rotational entropy correction.

Note: Rotational entropy computed according to Herzberg
Infrared and Raman Spectra, Chapter V,1, Van Nostrand Reinhold, 1945
Point Group:  C1, Symmetry Number:   1
Rotational constants in cm-1:     0.047741     0.009816     0.008261

Vibrational entropy computed according to the QRRHO of S. Grimme
Chem.Eur.J. 2012 18 9955

-------
ENTROPY
-------

The entropy contributions are T*S = T*(S(el)+S(vib)+S(rot)+S(trans))
     S(el)   - electronic entropy
     S(vib)  - vibrational entropy
     S(rot)  - rotational entropy
     S(trans)- translational entropy
The entropies will be listed as multiplied by the temperature to get
units of energy

Electronic entropy                ...      0.00000000 Eh      0.00 kcal/mol
Vibrational entropy               ...      0.01383072 Eh      8.68 kcal/mol
Rotational entropy                ...      0.01539397 Eh      9.66 kcal/mol
Translational entropy             ...      0.01933899 Eh     12.14 kcal/mol
-----------------------------------------------------------------------
Final entropy term                ...      0.04856368 Eh     30.47 kcal/mol

In case the symmetry of your molecule has not been determined correctly
or in case you have a reason to use a different symmetry number we print
out the resulting rotational entropy values for sn=1,12 :
 --------------------------------------------------------
|  sn= 1 | S(rot)=       0.01539397 Eh      9.66 kcal/mol|
|  sn= 2 | S(rot)=       0.01473951 Eh      9.25 kcal/mol|
|  sn= 3 | S(rot)=       0.01435668 Eh      9.01 kcal/mol|
|  sn= 4 | S(rot)=       0.01408505 Eh      8.84 kcal/mol|
|  sn= 5 | S(rot)=       0.01387437 Eh      8.71 kcal/mol|
|  sn= 6 | S(rot)=       0.01370222 Eh      8.60 kcal/mol|
|  sn= 7 | S(rot)=       0.01355667 Eh      8.51 kcal/mol|
|  sn= 8 | S(rot)=       0.01343060 Eh      8.43 kcal/mol|
|  sn= 9 | S(rot)=       0.01331939 Eh      8.36 kcal/mol|
|  sn=10 | S(rot)=       0.01321991 Eh      8.30 kcal/mol|
|  sn=11 | S(rot)=       0.01312992 Eh      8.24 kcal/mol|
|  sn=12 | S(rot)=       0.01304776 Eh      8.19 kcal/mol|
 --------------------------------------------------------

-------------------
GIBBS FREE ENERGY
-------------------

                             ****ORCA TERMINATED NORMALLY****
TOTAL RUN TIME: 0 days 4 hours 4 minutes 52 seconds 178 msec
