                         Program Version 4.2.1 -  RELEASE  -
|  1> !B3LYP DEF2-SVP OPT FREQ
|  2>
|  3> %geom
|  4> maxIter 150
|  5> end
|  6>
|  7> * xyz 1 1
|  8>    C       -4.00718        2.27900       -0.80607
|  9>    C       -4.99549        1.49226       -1.65972
| 10>    C       -4.87240       -0.01127       -1.48846
| 11>    C       -3.98325       -0.60218       -0.69805
| 12>    C       -3.04433        0.24761        0.08043
| 13>    C       -3.07947        1.63644        0.00946
| 14>    C       -4.04987        3.79402       -0.89989
| 15>    H       -3.93769       -1.68560       -0.61852
| 16>    H       -5.56828       -0.61708       -2.06448
| 17>    H       -6.01570        1.79494       -1.40702
| 18>    H       -3.29467        4.14961       -1.60433
| 19>    H       -3.85441        4.24727        0.07452
| 20>    H       -5.02836        4.13672       -1.24427
| 21>    H       -2.37494        2.22096        0.59664
| 22>    H       -2.31710       -0.24646        0.72023
| 23>    N       -4.88329        1.71237       -3.18379
| 24>    O       -3.76883        1.66438       -3.67792
| 25>    O       -5.88774        2.08624       -3.76571
| 26> **                         ****END OF INPUT****
 Total Charge           Charge          ....    1
 Multiplicity           Mult            ....    1
 Number of Electrons    NEL             ....   72
FINAL SINGLE POINT ENERGY      -475.714746093117
FINAL SINGLE POINT ENERGY      -475.724597582693
FINAL SINGLE POINT ENERGY      -475.725285437325
FINAL SINGLE POINT ENERGY      -475.727567778151
FINAL SINGLE POINT ENERGY      -475.727885342134
FINAL SINGLE POINT ENERGY      -475.728179931611
FINAL SINGLE POINT ENERGY      -475.728628350106
FINAL SINGLE POINT ENERGY      -475.729106598020
FINAL SINGLE POINT ENERGY      -475.729590696834
FINAL SINGLE POINT ENERGY      -475.730038457336
FINAL SINGLE POINT ENERGY      -475.730613294479
FINAL SINGLE POINT ENERGY      -475.730991636942
FINAL SINGLE POINT ENERGY      -475.731150389099
FINAL SINGLE POINT ENERGY      -475.731166964112
FINAL SINGLE POINT ENERGY      -475.731203468496
FINAL SINGLE POINT ENERGY      -475.731217325025
FINAL SINGLE POINT ENERGY      -475.731240185674
FINAL SINGLE POINT ENERGY      -475.731249392026
FINAL SINGLE POINT ENERGY      -475.731253561812
                    ***********************HURRAY********************

CARTESIAN COORDINATES (ANGSTROEM)
---------------------------------
  C     -3.949924    2.279384   -0.838598
  C     -4.896201    1.465449   -1.658072
  C     -4.830905   -0.009193   -1.554229
  C     -4.006851   -0.610653   -0.646755
  C     -3.157041    0.201039    0.152158
  C     -3.141158    1.602470    0.065515
  C     -3.926200    3.758780   -0.948550
  H     -3.976078   -1.698392   -0.549382
  H     -5.479628   -0.582729   -2.222441
  H     -5.918519    1.765010   -1.335492
  H     -3.280711    4.039000   -1.804012
  H     -3.512899    4.221981   -0.041612
  H     -4.916866    4.182481   -1.173263
  H     -2.472063    2.170878    0.716232
  H     -2.476979   -0.286675    0.858729
  N     -4.979907    1.856409   -3.219181
  O     -4.252599    2.730212   -3.605574
  O     -5.788470    1.213780   -3.832421

 Multiplicity           Mult            ....    1
 Number of Electrons    NEL             ....   72
 Basis Dimension        Dim             ....  180

ORBITAL ENERGIES
----------------

  NO   OCC          E(Eh)            E(eV)
   0   2.0000     -19.355555      -526.6914
   1   2.0000     -19.352515      -526.6087
   2   2.0000     -14.748691      -401.3323
   3   2.0000     -10.453170      -284.4452
   4   2.0000     -10.447491      -284.2907
   5   2.0000     -10.438880      -284.0564
   6   2.0000     -10.428814      -283.7825
   7   2.0000     -10.404039      -283.1083
   8   2.0000     -10.403705      -283.0992
   9   2.0000     -10.367632      -282.1176
  10   2.0000      -1.416469       -38.5441
  11   2.0000      -1.251777       -34.0626
  12   2.0000      -1.079753       -29.3816
  13   2.0000      -0.989634       -26.9293
  14   2.0000      -0.980420       -26.6786
  15   2.0000      -0.897735       -24.4286
  16   2.0000      -0.854906       -23.2632
  17   2.0000      -0.803373       -21.8609
  18   2.0000      -0.783419       -21.3179
  19   2.0000      -0.737719       -20.0744
  20   2.0000      -0.730633       -19.8815
  21   2.0000      -0.702874       -19.1262
  22   2.0000      -0.693978       -18.8841
  23   2.0000      -0.675960       -18.3938
  24   2.0000      -0.664223       -18.0744
  25   2.0000      -0.634727       -17.2718
  26   2.0000      -0.619706       -16.8631
  27   2.0000      -0.592627       -16.1262
  28   2.0000      -0.583411       -15.8754
  29   2.0000      -0.562739       -15.3129
  30   2.0000      -0.553800       -15.0697
  31   2.0000      -0.544760       -14.8237
  32   2.0000      -0.497865       -13.5476
  33   2.0000      -0.483453       -13.1554
  34   2.0000      -0.481049       -13.0900
  35   2.0000      -0.467718       -12.7273
  36   0.0000      -0.327501        -8.9118
  37   0.0000      -0.239466        -6.5162
  38   0.0000      -0.216521        -5.8918
  39   0.0000      -0.140852        -3.8328
  40   0.0000      -0.111841        -3.0434

MULLIKEN ATOMIC CHARGES
-----------------------
   0 C :   -0.103112
   1 C :    0.157611
   2 C :    0.029425
   3 C :    0.046084
   4 C :    0.107539
   5 C :    0.036988
   6 C :    0.072377
   7 H :    0.075432
   8 H :    0.098959
   9 H :    0.146754
  10 H :    0.119875
  11 H :    0.075006
  12 H :    0.070664
  13 H :    0.053474
  14 H :    0.087107
  15 N :    0.212032
  16 O :   -0.145441
  17 O :   -0.140774
Sum of atomic charges:    1.0000000

LOEWDIN ATOMIC CHARGES
----------------------
   0 C :    0.111717
   1 C :    0.009538
   2 C :    0.103760
   3 C :    0.000217
   4 C :    0.158238
   5 C :   -0.005770
   6 C :   -0.032553
   7 H :    0.069348
   8 H :    0.069405
   9 H :    0.119725
  10 H :    0.088525
  11 H :    0.060521
  12 H :    0.061107
  13 H :    0.063915
  14 H :    0.072516
  15 N :    0.280518
  16 O :   -0.114819
  17 O :   -0.115907

  Mayer bond orders larger than 0.100000
B(  0-C ,  1-C ) :   1.0091 B(  0-C ,  5-C ) :   1.4767 B(  0-C ,  6-C ) :   1.1106
B(  1-C ,  2-C ) :   1.0428 B(  1-C ,  9-H ) :   0.8238 B(  1-C , 15-N ) :   0.7139
B(  2-C ,  3-C ) :   1.5855 B(  2-C ,  8-H ) :   0.9615 B(  3-C ,  4-C ) :   1.2337
B(  3-C ,  7-H ) :   0.9878 B(  4-C ,  5-C ) :   1.3261 B(  4-C , 14-H ) :   0.9720
B(  5-C , 13-H ) :   0.9864 B(  6-C , 10-H ) :   0.8929 B(  6-C , 11-H ) :   0.9415
B(  6-C , 12-H ) :   0.9441 B( 15-N , 16-O ) :   1.6098 B( 15-N , 17-O ) :   1.5793
B( 16-O , 17-O ) :   0.2933

FINAL SINGLE POINT ENERGY      -475.731254631245

DIPOLE MOMENT
-------------
                                X             Y             Z
Electronic contribution:     -1.86235      -2.27246      -5.21508
Nuclear contribution   :      2.40610       1.70737       7.48532
                        -----------------------------------------
Total Dipole Moment    :      0.54375      -0.56509       2.27024
                        -----------------------------------------
Magnitude (a.u.)       :      2.40187
Magnitude (Debye)      :      6.10506

VIBRATIONAL FREQUENCIES
-----------------------

Scaling factor for frequencies =  1.000000000  (already applied!)

   0:         0.00 cm**-1
   1:         0.00 cm**-1
   2:         0.00 cm**-1
   3:         0.00 cm**-1
   4:         0.00 cm**-1
   5:         0.00 cm**-1
   6:        41.17 cm**-1
   7:        74.66 cm**-1
   8:       135.25 cm**-1
   9:       201.25 cm**-1
  10:       241.71 cm**-1
  11:       302.41 cm**-1
  12:       336.63 cm**-1
  13:       410.54 cm**-1
  14:       435.77 cm**-1
  15:       496.72 cm**-1
  16:       520.05 cm**-1
  17:       608.72 cm**-1
  18:       649.93 cm**-1
  19:       709.57 cm**-1
  20:       780.07 cm**-1
  21:       825.52 cm**-1
  22:       835.97 cm**-1
  23:       877.20 cm**-1
  24:       917.80 cm**-1
  25:       994.63 cm**-1
  26:      1002.20 cm**-1
  27:      1024.91 cm**-1
  28:      1049.46 cm**-1
  29:      1063.87 cm**-1
  30:      1071.20 cm**-1
  31:      1100.60 cm**-1
  32:      1160.21 cm**-1
  33:      1187.20 cm**-1
  34:      1208.66 cm**-1
  35:      1297.78 cm**-1
  36:      1354.52 cm**-1
  37:      1377.02 cm**-1
  38:      1398.10 cm**-1
  39:      1411.62 cm**-1
  40:      1444.60 cm**-1
  41:      1457.17 cm**-1
  42:      1514.16 cm**-1
  43:      1555.57 cm**-1
  44:      1654.96 cm**-1
  45:      1786.71 cm**-1
  46:      2977.62 cm**-1
  47:      3015.37 cm**-1
  48:      3098.26 cm**-1
  49:      3155.87 cm**-1
  50:      3189.67 cm**-1
  51:      3203.72 cm**-1
  52:      3205.19 cm**-1
  53:      3216.83 cm**-1

IR SPECTRUM
-----------

 Mode    freq (cm**-1)   T**2         TX         TY         TZ
-------------------------------------------------------------------
   6:        41.17    0.032985  (  0.091346  -0.032828  -0.153503)
   7:        74.66    6.110861  ( -1.350607   1.126092  -1.737423)
   8:       135.25    1.784132  ( -1.238566  -0.002082  -0.500081)
   9:       201.25    3.582154  ( -0.169462  -1.403430   1.258500)
  10:       241.71    3.098182  (  0.592328   1.478512   0.749220)
  11:       302.41   13.712580  (  0.156498  -0.691750   3.634497)
  12:       336.63    3.783854  (  0.001123   0.454936  -1.891265)
  13:       410.54   15.159129  ( -1.317764   2.218705  -2.915472)
  14:       435.77    5.465175  (  1.240274   0.509743  -1.914956)
  15:       496.72    0.293559  (  0.473471  -0.102901  -0.242478)
  16:       520.05    7.993800  (  0.788680   1.987768   1.849475)
  17:       608.72    4.881842  ( -1.114007  -1.008150   1.620019)
  18:       649.93   28.117870  (  1.355364   0.296874  -5.117883)
  19:       709.57   33.779278  (  3.195831  -1.005737  -4.749151)
  20:       780.07   15.682342  ( -2.061530   1.122467  -3.189436)
  21:       825.52  159.897291  (  4.964600  -2.245503  11.410861)
  22:       835.97   85.098492  (  0.786765   2.164266  -8.932830)
  23:       877.20    2.580397  (  0.157493   1.547395   0.401448)
  24:       917.80   21.077196  ( -1.841653   0.913144  -4.105080)
  25:       994.63    8.916143  (  0.437291  -1.800771   2.341398)
  26:      1002.20   14.713941  ( -2.252636  -3.104173   0.060683)
  27:      1024.91    5.163663  ( -1.701806  -0.271931  -1.481071)
  28:      1049.46    0.539935  ( -0.036536  -0.418649  -0.602772)
  29:      1063.87    6.281997  (  0.777452  -1.811001   1.548496)
  30:      1071.20    8.906909  ( -0.981377  -1.809209   2.161151)
  31:      1100.60   80.111638  (  1.255143  -2.295685   8.559561)
  32:      1160.21    4.818540  ( -0.947162  -1.980127   0.022855)
  33:      1187.20   15.444080  ( -1.792621  -2.991615  -1.811307)
  34:      1208.66   12.602002  ( -0.165879   3.442697  -0.849897)
  35:      1297.78   13.820098  ( -0.245762   3.629502   0.765775)
  36:      1354.52   68.071807  ( -0.784848  -7.354581   3.655948)
  37:      1377.02   69.485361  (  4.233975   0.721516   7.144105)
  38:      1398.10   88.805967  ( -0.136993   1.421133  -9.314912)
  39:      1411.62    1.679968  (  1.116764  -0.554765   0.353612)
  40:      1444.60   93.675555  (  5.747109   0.344139   7.779966)
  41:      1457.17   71.137759  ( -0.275097   5.775320  -6.140665)
  42:      1514.16  273.827172  (  2.602317  16.193619   2.195868)
  43:      1555.57    5.679590  ( -1.381339   0.669705  -1.822906)
  44:      1654.96  104.420588  (  6.544139  -4.934010   6.103309)
  45:      1786.71  264.766472  (-11.228510 -11.596047  -2.053952)
  46:      2977.62   48.050245  ( -6.758474   0.367307   1.496115)
  47:      3015.37   55.931555  (  1.190998   6.987292  -2.385545)
  48:      3098.26    9.134445  ( -1.485895  -1.957440   1.759258)
  49:      3155.87    1.081032  ( -0.092131   0.933486  -0.448496)
  50:      3189.67    1.288490  ( -0.369975   0.927074  -0.540502)
  51:      3203.72    0.003409  (  0.017887   0.015022  -0.053510)
  52:      3205.19   22.096933  (  3.220745   0.686762   3.354414)
  53:      3216.83   15.126634  ( -0.879421  -3.723376  -0.699804)

--------------------------
THERMOCHEMISTRY AT 298.15K
--------------------------

Temperature         ... 298.15 K
Pressure            ... 1.00 atm
Total Mass          ... 138.15 AMU

Throughout the following assumptions are being made:
  (1) The electronic state is orbitally nondegenerate
  (2) There are no thermally accessible electronically excited states
  (3) Hindered rotations indicated by low frequency modes are not
      treated as such but are treated as vibrations and this may
      cause some error
  (4) All equations used are the standard statistical mechanics
      equations for an ideal gas
  (5) All vibrations are strictly harmonic

freq.      41.17  E(vib)   ...       0.54
freq.      74.66  E(vib)   ...       0.49
freq.     135.25  E(vib)   ...       0.42
freq.     201.25  E(vib)   ...       0.35
freq.     241.71  E(vib)   ...       0.31
freq.     302.41  E(vib)   ...       0.26
freq.     336.63  E(vib)   ...       0.24
freq.     410.54  E(vib)   ...       0.19
freq.     435.77  E(vib)   ...       0.17
freq.     496.72  E(vib)   ...       0.14
freq.     520.05  E(vib)   ...       0.13
freq.     608.72  E(vib)   ...       0.10
freq.     649.93  E(vib)   ...       0.08
freq.     709.57  E(vib)   ...       0.07
freq.     780.07  E(vib)   ...       0.05
freq.     825.52  E(vib)   ...       0.04
freq.     835.97  E(vib)   ...       0.04
freq.     877.20  E(vib)   ...       0.04
freq.     917.80  E(vib)   ...       0.03
freq.     994.63  E(vib)   ...       0.02
freq.    1002.20  E(vib)   ...       0.02
freq.    1024.91  E(vib)   ...       0.02
freq.    1049.46  E(vib)   ...       0.02
freq.    1063.87  E(vib)   ...       0.02
freq.    1071.20  E(vib)   ...       0.02
freq.    1100.60  E(vib)   ...       0.02
freq.    1160.21  E(vib)   ...       0.01
freq.    1187.20  E(vib)   ...       0.01
freq.    1208.66  E(vib)   ...       0.01
freq.    1297.78  E(vib)   ...       0.01
freq.    1354.52  E(vib)   ...       0.01
freq.    1377.02  E(vib)   ...       0.01
freq.    1398.10  E(vib)   ...       0.00
freq.    1411.62  E(vib)   ...       0.00
freq.    1444.60  E(vib)   ...       0.00
freq.    1457.17  E(vib)   ...       0.00
freq.    1514.16  E(vib)   ...       0.00
freq.    1555.57  E(vib)   ...       0.00
freq.    1654.96  E(vib)   ...       0.00
freq.    1786.71  E(vib)   ...       0.00
freq.    2977.62  E(vib)   ...       0.00
freq.    3015.37  E(vib)   ...       0.00
freq.    3098.26  E(vib)   ...       0.00
freq.    3155.87  E(vib)   ...       0.00
freq.    3189.67  E(vib)   ...       0.00
freq.    3203.72  E(vib)   ...       0.00
freq.    3205.19  E(vib)   ...       0.00
freq.    3216.83  E(vib)   ...       0.00

------------
INNER ENERGY
------------

The inner energy is: U= E(el) + E(ZPE) + E(vib) + E(rot) + E(trans)
    E(el)   - is the total energy from the electronic structure calculation
              = E(kin-el) + E(nuc-el) + E(el-el) + E(nuc-nuc)
    E(ZPE)  - the the zero temperature vibrational energy from the frequency calculation
    E(vib)  - the the finite temperature correction to E(ZPE) due to population
              of excited vibrational states
    E(rot)  - is the rotational thermal energy
    E(trans)- is the translational thermal energy

Summary of contributions to the inner energy U:
Electronic energy                ...   -475.73125463 Eh
Zero point energy                ...      0.14028641 Eh      88.03 kcal/mol
Thermal vibrational correction   ...      0.00624245 Eh       3.92 kcal/mol
Thermal rotational correction    ...      0.00141627 Eh       0.89 kcal/mol
Thermal translational correction ...      0.00141627 Eh       0.89 kcal/mol
-----------------------------------------------------------------------
Total thermal energy                   -475.58189323 Eh

Summary of corrections to the electronic energy:
(perhaps to be used in another calculation)
Total thermal correction                  0.00907499 Eh       5.69 kcal/mol
Non-thermal (ZPE) correction              0.14028641 Eh      88.03 kcal/mol
-----------------------------------------------------------------------
Total correction                          0.14936140 Eh      93.73 kcal/mol

--------
ENTHALPY
--------

The enthalpy is H = U + kB*T
                kB is Boltzmann's constant
Total free energy                 ...   -475.58189323 Eh
Thermal Enthalpy correction       ...      0.00094421 Eh       0.59 kcal/mol
-----------------------------------------------------------------------
Total Enthalpy                    ...   -475.58094902 Eh

Note: Only C1 symmetry has been detected, increase convergence thresholds
      if your molecule has a higher symmetry. Symmetry factor of 1.0 is
      used for the rotational entropy correction.

Note: Rotational entropy computed according to Herzberg
Infrared and Raman Spectra, Chapter V,1, Van Nostrand Reinhold, 1945
Point Group:  C1, Symmetry Number:   1
Rotational constants in cm-1:     0.068595     0.041974     0.028102

Vibrational entropy computed according to the QRRHO of S. Grimme
Chem.Eur.J. 2012 18 9955

-------
ENTROPY
-------

The entropy contributions are T*S = T*(S(el)+S(vib)+S(rot)+S(trans))
     S(el)   - electronic entropy
     S(vib)  - vibrational entropy
     S(rot)  - rotational entropy
     S(trans)- translational entropy
The entropies will be listed as mutliplied by the temperature to get
units of energy

Electronic entropy                ...      0.00000000 Eh      0.00 kcal/mol
Vibrational entropy               ...      0.01062497 Eh      6.67 kcal/mol
Rotational entropy                ...      0.01395892 Eh      8.76 kcal/mol
Translational entropy             ...      0.01932890 Eh     12.13 kcal/mol
-----------------------------------------------------------------------
Final entropy term                ...      0.04391279 Eh     27.56 kcal/mol

In case the symmetry of your molecule has not been determined correctly
or in case you have a reason to use a different symmetry number we print
out the resulting rotational entropy values for sn=1,12 :
 --------------------------------------------------------
|  sn= 1 | S(rot)=       0.01395892 Eh      8.76 kcal/mol|
|  sn= 2 | S(rot)=       0.01330447 Eh      8.35 kcal/mol|
|  sn= 3 | S(rot)=       0.01292164 Eh      8.11 kcal/mol|
|  sn= 4 | S(rot)=       0.01265001 Eh      7.94 kcal/mol|
|  sn= 5 | S(rot)=       0.01243932 Eh      7.81 kcal/mol|
|  sn= 6 | S(rot)=       0.01226718 Eh      7.70 kcal/mol|
|  sn= 7 | S(rot)=       0.01212163 Eh      7.61 kcal/mol|
|  sn= 8 | S(rot)=       0.01199556 Eh      7.53 kcal/mol|
|  sn= 9 | S(rot)=       0.01188435 Eh      7.46 kcal/mol|
|  sn=10 | S(rot)=       0.01178487 Eh      7.40 kcal/mol|
|  sn=11 | S(rot)=       0.01169488 Eh      7.34 kcal/mol|
|  sn=12 | S(rot)=       0.01161272 Eh      7.29 kcal/mol|
 --------------------------------------------------------

                             ****ORCA TERMINATED NORMALLY****
TOTAL RUN TIME: 0 days 2 hours 24 minutes 29 seconds 685 msec
