                         Program Version 5.0.4 -  RELEASE  -
|  1> !B3LYP DEF2-QZVPP D4 KEEPDENS SOSCF
|  2>
|  3> %scf
|  4> convergence verytight
|  5> end
|  6>
|  7> * xyz 0 1
|  8>   C   -3.86516734357010      0.94434157945665     -0.07538725943809
|  9>   C   -4.92272831379506      0.26873722983356     -0.70264597592121
| 10>   C   -5.03057771819703     -1.11798142899817     -0.59784356576840
| 11>   C   -4.08352665954933     -1.84223577131705      0.13553018590779
| 12>   C   -3.02981102252337     -1.17199643200787      0.76088165488684
| 13>   C   -2.91953321612422      0.21863970639081      0.65722704147654
| 14>   C   -3.81073419980518      2.46478525764726     -0.19518116082199
| 15>   H   -5.65406019384117      0.84349861132032     -1.27491300280147
| 16>   H   -5.85623938274783     -1.63850776567522     -1.09027562821825
| 17>   H   -4.16802260279406     -2.92913883238131      0.21698779894580
| 18>   H   -2.28611135457989     -1.73328106107773      1.33282673748350
| 19>   H   -2.09792478362700      0.74948053847094      1.13911505725274
| 20>   O   -4.89378187167171      3.07132909731433      0.44720048381772
| 21>   H   -4.93072682950342      2.71104471332091      1.34348100678890
| 22>   O   -2.59608443456263      2.90295951283218      0.34520695932434
| 23>   H   -2.62116462808870      3.87067963083761      0.29505823914507
| 24>   O   -3.95270938377184      2.89080295116375     -1.51804130322301
| 25>   H   -3.24608606124737      2.46925246286899     -2.02593726883681
| 26> **                         ****END OF INPUT****

CARTESIAN COORDINATES (ANGSTROEM)
---------------------------------
  C     -3.865167    0.944342   -0.075387
  C     -4.922728    0.268737   -0.702646
  C     -5.030578   -1.117981   -0.597844
  C     -4.083527   -1.842236    0.135530
  C     -3.029811   -1.171996    0.760882
  C     -2.919533    0.218640    0.657227
  C     -3.810734    2.464785   -0.195181
  H     -5.654060    0.843499   -1.274913
  H     -5.856239   -1.638508   -1.090276
  H     -4.168023   -2.929139    0.216988
  H     -2.286111   -1.733281    1.332827
  H     -2.097925    0.749481    1.139115
  O     -4.893782    3.071329    0.447200
  H     -4.930727    2.711045    1.343481
  O     -2.596084    2.902960    0.345207
  H     -2.621165    3.870680    0.295058
  O     -3.952709    2.890803   -1.518041
  H     -3.246086    2.469252   -2.025937

 Total Charge           Charge          ....    0
 Multiplicity           Mult            ....    1
 Number of Electrons    NEL             ....   74
 Basis Dimension        Dim             ....  810

ORBITAL ENERGIES
----------------

  NO   OCC          E(Eh)            E(eV)
   0   2.0000     -19.143928      -520.9328
   1   2.0000     -19.143683      -520.9261
   2   2.0000     -19.142960      -520.9064
   3   2.0000     -10.337817      -281.3063
   4   2.0000     -10.191540      -277.3259
   5   2.0000     -10.185775      -277.1690
   6   2.0000     -10.185056      -277.1495
   7   2.0000     -10.184836      -277.1435
   8   2.0000     -10.184254      -277.1276
   9   2.0000     -10.184194      -277.1260
  10   2.0000      -1.115322       -30.3495
  11   2.0000      -1.017770       -27.6949
  12   2.0000      -1.015025       -27.6202
  13   2.0000      -0.861546       -23.4438
  14   2.0000      -0.766050       -20.8453
  15   2.0000      -0.750899       -20.4330
  16   2.0000      -0.671133       -18.2625
  17   2.0000      -0.622812       -16.9476
  18   2.0000      -0.608569       -16.5600
  19   2.0000      -0.573397       -15.6029
  20   2.0000      -0.528142       -14.3715
  21   2.0000      -0.505915       -13.7666
  22   2.0000      -0.483789       -13.1646
  23   2.0000      -0.453247       -12.3335
  24   2.0000      -0.452360       -12.3093
  25   2.0000      -0.432273       -11.7627
  26   2.0000      -0.428060       -11.6481
  27   2.0000      -0.423357       -11.5201
  28   2.0000      -0.380117       -10.3435
  29   2.0000      -0.376514       -10.2455
  30   2.0000      -0.353009        -9.6059
  31   2.0000      -0.349917        -9.5217
  32   2.0000      -0.342741        -9.3265
  33   2.0000      -0.307479        -8.3669
  34   2.0000      -0.301005        -8.1908
  35   2.0000      -0.262453        -7.1417
  36   2.0000      -0.257484        -7.0065
  37   0.0000      -0.026604        -0.7239
  38   0.0000      -0.019644        -0.5345
  39   0.0000       0.006410         0.1744
  40   0.0000       0.029559         0.8043
  41   0.0000       0.041344         1.1250

MULLIKEN ATOMIC CHARGES
-----------------------
   0 C :    0.069610
   1 C :   -0.128086
   2 C :   -0.089595
   3 C :   -0.061077
   4 C :   -0.087137
   5 C :   -0.118083
   6 C :    0.586844
   7 H :    0.107524
   8 H :    0.064027
   9 H :    0.058859
  10 H :    0.062779
  11 H :    0.077449
  12 O :   -0.388498
  13 H :    0.222233
  14 O :   -0.430502
  15 H :    0.220011
  16 O :   -0.395900
  17 H :    0.229542
Sum of atomic charges:   -0.0000000

LOEWDIN ATOMIC CHARGES
----------------------
   0 C :   -0.108835
   1 C :    0.082708
   2 C :    0.062881
   3 C :    0.062225
   4 C :    0.062039
   5 C :    0.076844
   6 C :   -0.923844
   7 H :   -0.043702
   8 H :   -0.055751
   9 H :   -0.056253
  10 H :   -0.056227
  11 H :   -0.053622
  12 O :    0.663000
  13 H :   -0.339602
  14 O :    0.646974
  15 H :   -0.341887
  16 O :    0.661869
  17 H :   -0.338819

  Mayer bond orders larger than 0.100000
B(  0-C ,  1-C ) :   1.2564 B(  0-C ,  5-C ) :   1.2543 B(  0-C ,  6-C ) :   0.8493
B(  1-C ,  2-C ) :   1.3306 B(  1-C ,  7-H ) :   0.9607 B(  2-C ,  3-C ) :   1.3174
B(  2-C ,  8-H ) :   0.9699 B(  3-C ,  4-C ) :   1.3328 B(  3-C ,  9-H ) :   0.9674
B(  4-C ,  5-C ) :   1.3225 B(  4-C , 10-H ) :   0.9707 B(  5-C , 11-H ) :   0.9569
B(  6-C , 12-O ) :   1.0330 B(  6-C , 14-O ) :   1.0849 B(  6-C , 16-O ) :   1.0277
B( 12-O , 13-H ) :   0.9768 B( 14-O , 15-H ) :   0.9649 B( 16-O , 17-H ) :   0.9705

Dispersion correction           -0.029843094
FINAL SINGLE POINT ENERGY      -497.230018933768

DIPOLE MOMENT
-------------
                                X             Y             Z
Electronic contribution:      0.02450       3.03184      -0.33480
Nuclear contribution   :      0.31644      -3.51876       0.56972
                        -----------------------------------------
Total Dipole Moment    :      0.34094      -0.48692       0.23492
                        -----------------------------------------
Magnitude (a.u.)       :      0.63916
Magnitude (Debye)      :      1.62461

Rotational constants in cm-1:     0.093520     0.032173     0.027486
Rotational constants in MHz :  2803.659723   964.517439   824.009769

                             ****ORCA TERMINATED NORMALLY****
TOTAL RUN TIME: 0 days 0 hours 19 minutes 36 seconds 555 msec
