                         Program Version 5.0.4 -  RELEASE  -
|  1> !B3LYP DEF2-QZVPP
|  2>
|  3> %scf
|  4> smearTemp 5000
|  5> convergence tight
|  6> end
|  7>
|  8> * xyz 0 1
|  9>   C   -6.48685128277804      0.77688258612871      0.00000003669213
| 10>   C   -7.73381145284436      0.14568444861554     -0.00000001281082
| 11>   C   -7.78899585175133     -1.25047491000549      0.00000011071880
| 12>   C   -6.61307853819634     -2.00658591283547     -0.00000008160071
| 13>   C   -5.37350246533332     -1.36010178848815     -0.00000002916520
| 14>   C   -5.30222408891036      0.03530712324043      0.00000018545977
| 15>   H   -8.64519500876919      0.74587694922205     -0.00000005341796
| 16>   H   -8.76194889046812     -1.74856684410237      0.00000018644643
| 17>   H   -6.66266737522386     -3.09801741276813     -0.00000018313853
| 18>   H   -4.44947771966353     -1.94396554004229     -0.00000012119653
| 19>   H   -4.34031613114399      0.55064255938228      0.00000022091144
| 20>   Cl  -6.40746119491754      2.52416874165289     -0.00000025889883
| 21> **                         ****END OF INPUT****

CARTESIAN COORDINATES (ANGSTROEM)
---------------------------------
  C     -6.486851    0.776883    0.000000
  C     -7.733811    0.145684   -0.000000
  C     -7.788996   -1.250475    0.000000
  C     -6.613079   -2.006586   -0.000000
  C     -5.373502   -1.360102   -0.000000
  C     -5.302224    0.035307    0.000000
  H     -8.645195    0.745877   -0.000000
  H     -8.761949   -1.748567    0.000000
  H     -6.662667   -3.098017   -0.000000
  H     -4.449478   -1.943966   -0.000000
  H     -4.340316    0.550643    0.000000
  Cl    -6.407461    2.524169   -0.000000

 Total Charge           Charge          ....    0
 Multiplicity           Mult            ....    1
 Number of Electrons    NEL             ....   58
 Basis Dimension        Dim             ....  562

ORBITAL ENERGIES
----------------

  NO   OCC          E(Eh)            E(eV)
   0   2.0000    -101.530088     -2762.7742
   1   2.0000     -10.243630      -278.7433
   2   2.0000     -10.194416      -277.4042
   3   2.0000     -10.194403      -277.4038
   4   2.0000     -10.193536      -277.3802
   5   2.0000     -10.193495      -277.3791
   6   2.0000     -10.189974      -277.2833
   7   2.0000      -9.460898      -257.4441
   8   2.0000      -7.222965      -196.5469
   9   2.0000      -7.214696      -196.3219
  10   2.0000      -7.214382      -196.3133
  11   2.0000      -0.892600       -24.2889
  12   2.0000      -0.838428       -22.8148
  13   2.0000      -0.761082       -20.7101
  14   2.0000      -0.736663       -20.0456
  15   2.0000      -0.621956       -16.9243
  16   2.0000      -0.603796       -16.4301
  17   2.0000      -0.528156       -14.3719
  18   2.0000      -0.472526       -12.8581
  19   2.0000      -0.470739       -12.8095
  20   2.0000      -0.436609       -11.8807
  21   2.0000      -0.434611       -11.8264
  22   2.0000      -0.400499       -10.8981
  23   2.0000      -0.367550       -10.0015
  24   2.0000      -0.365333        -9.9412
  25   2.0000      -0.338418        -9.2088
  26   2.0000      -0.315320        -8.5803
  27   1.9993      -0.270384        -7.3575
  28   1.9979      -0.252275        -6.8647
  29   0.0014      -0.028782        -0.7832
  30   0.0013      -0.027560        -0.7499
  31   0.0001       0.009231         0.2512
  32   0.0000       0.036505         0.9934
  33   0.0000       0.043092         1.1726
  34   0.0000       0.052655         1.4328
  35   0.0000       0.077164         2.0997
  36   0.0000       0.080287         2.1847

LOEWDIN ATOMIC CHARGES
----------------------
   0 C :   -0.466750
   1 C :    0.036743
   2 C :    0.064320
   3 C :    0.060684
   4 C :    0.064358
   5 C :    0.036709
   6 H :   -0.055212
   7 H :   -0.054183
   8 H :   -0.056294
   9 H :   -0.054180
  10 H :   -0.055222
  11 Cl:    0.479027

  Mayer bond orders larger than 0.100000
B(  0-C ,  1-C ) :   1.2576 B(  0-C ,  5-C ) :   1.2578 B(  0-C , 11-Cl) :   1.0155
B(  1-C ,  2-C ) :   1.3220 B(  1-C ,  6-H ) :   0.9587 B(  2-C ,  3-C ) :   1.3289
B(  2-C ,  7-H ) :   0.9643 B(  3-C ,  4-C ) :   1.3294 B(  3-C ,  8-H ) :   0.9684
B(  4-C ,  5-C ) :   1.3225 B(  4-C ,  9-H ) :   0.9644 B(  5-C , 10-H ) :   0.9583

FINAL SINGLE POINT ENERGY      -691.777181803342

DIPOLE MOMENT
-------------
                                X             Y             Z
Electronic contribution:      0.41102       9.05478       0.00000
Nuclear contribution   :     -0.44175      -9.73233       0.00000
                        -----------------------------------------
Total Dipole Moment    :     -0.03073      -0.67755       0.00000
                        -----------------------------------------
Magnitude (a.u.)       :      0.67825
Magnitude (Debye)      :      1.72396

Rotational constants in cm-1:     0.188469     0.051636     0.040531
Rotational constants in MHz :  5650.172228  1548.005627  1215.098957

                             ****ORCA TERMINATED NORMALLY****
TOTAL RUN TIME: 0 days 0 hours 35 minutes 31 seconds 527 msec
