                         Program Version 5.0.4 -  RELEASE  -
|  1> !B3LYP DEF2-SVP OPT FREQ D4 SOSCF
|  2>
|  3> %geom
|  4> convergence tight
|  5> maxIter 1000
|  6> end
|  7>
|  8> %scf
|  9> convergence tight
| 10> maxIter 1000
| 11> end
| 12>
| 13>
| 14> * xyz 1 1
| 15>    C       -5.80653        0.93967        0.11878
| 16>    C       -6.87122        1.43300       -0.67977
| 17>    C       -7.42831        0.65268       -1.65127
| 18>    C       -6.92064       -0.64633       -1.82902
| 19>    C       -5.87372       -1.17698       -1.06315
| 20>    C       -5.32486       -0.38116       -0.09854
| 21>    C       -5.19754        1.80113        1.13930
| 22>    H       -4.67646        1.22845        1.88501
| 23>    H       -5.92138        2.47655        1.61656
| 24>    H       -4.46660        2.44685        0.66580
| 25>    H       -7.24637        2.44310       -0.51475
| 26>    H       -8.23640        1.01333       -2.27724
| 27>    H       -5.52711       -2.19353       -1.23890
| 28>    H       -4.51210       -0.76447        0.51069
| 29>    N       -7.50666       -1.48133       -2.85010
| 30>    O       -7.59357       -2.66276       -2.61222
| 31>    O       -7.86475       -0.93405       -3.86177
| 32>    H      -12.54917       -6.05816       -9.87051
| 33> **                         ****END OF INPUT****
 Total Charge           Charge          ....    1
 Multiplicity           Mult            ....    1
 Number of Electrons    NEL             ....   72
Dispersion correction           -0.026727205
FINAL SINGLE POINT ENERGY      -475.477832152049
Dispersion correction            ... Starting D4
Dispersion correction           -0.026493807
FINAL SINGLE POINT ENERGY      -475.483901505834
Dispersion correction            ... Starting D4
Dispersion correction           -0.026447890
FINAL SINGLE POINT ENERGY      -475.485108110614
Dispersion correction            ... Starting D4
FINAL SINGLE POINT ENERGY      -475.485847873169
FINAL SINGLE POINT ENERGY      -475.486321641771
FINAL SINGLE POINT ENERGY      -475.486593208091
FINAL SINGLE POINT ENERGY      -475.486723218176
FINAL SINGLE POINT ENERGY      -475.486825607303
FINAL SINGLE POINT ENERGY      -475.486923951796
FINAL SINGLE POINT ENERGY      -475.487023016241
FINAL SINGLE POINT ENERGY      -475.598241847568
FINAL SINGLE POINT ENERGY      -475.598555249651
FINAL SINGLE POINT ENERGY      -475.598811920606
FINAL SINGLE POINT ENERGY      -475.599062401676
FINAL SINGLE POINT ENERGY      -475.599207308265
FINAL SINGLE POINT ENERGY      -475.599226683954
FINAL SINGLE POINT ENERGY      -475.599231257739
Dispersion correction           -0.026483244
FINAL SINGLE POINT ENERGY      -475.599232003908
Dispersion correction            ... Starting D4
Dispersion correction           -0.026483387
FINAL SINGLE POINT ENERGY      -475.599232270094
Dispersion correction            ... Starting D4
                    ***********************HURRAY********************

CARTESIAN COORDINATES (ANGSTROEM)
---------------------------------
  C     -5.817164    0.921332    0.109561
  C     -6.819695    1.479849   -0.735097
  C     -7.405864    0.726992   -1.734307
  C     -6.982289   -0.607411   -1.898228
  C     -5.994016   -1.201651   -1.089532
  C     -5.422341   -0.436632   -0.092456
  C     -5.169200    1.736937    1.167946
  H     -4.979241    1.143916    2.077966
  H     -5.744257    2.638646    1.419057
  H     -4.169629    2.068003    0.814846
  H     -7.126547    2.517117   -0.584441
  H     -8.182029    1.132026   -2.385073
  H     -5.700968   -2.237554   -1.265549
  H     -4.656815   -0.870611    0.554908
  N     -7.599028   -1.410504   -2.950164
  O     -6.884590   -2.205948   -3.532370
  O     -8.783465   -1.224351   -3.165077
  H    -12.086253   -6.034165   -9.323089

 Multiplicity           Mult            ....    1
 Number of Electrons    NEL             ....   72
 Basis Dimension        Dim             ....  180

ORBITAL ENERGIES
----------------

  NO   OCC          E(Eh)            E(eV)
   0   2.0000     -19.318364      -525.6794
   1   2.0000     -19.318095      -525.6721
   2   2.0000     -14.707008      -400.1980
   3   2.0000     -10.419429      -283.5271
   4   2.0000     -10.392687      -282.7994
   5   2.0000     -10.372008      -282.2367
   6   2.0000     -10.370946      -282.2078
   7   2.0000     -10.365840      -282.0688
   8   2.0000     -10.364567      -282.0342
   9   2.0000     -10.335543      -281.2444
  10   2.0000      -1.375762       -37.4364
  11   2.0000      -1.202418       -32.7195
  12   2.0000      -1.039486       -28.2859
  13   2.0000      -0.966724       -26.3059
  14   2.0000      -0.918896       -25.0044
  15   2.0000      -0.886054       -24.1107
  16   2.0000      -0.800240       -21.7756
  17   2.0000      -0.781869       -21.2757
  18   2.0000      -0.733645       -19.9635
  19   2.0000      -0.699532       -19.0352
  20   2.0000      -0.689636       -18.7659
  21   2.0000      -0.658181       -17.9100
  22   2.0000      -0.633093       -17.2273
  23   2.0000      -0.630339       -17.1524
  24   2.0000      -0.603991       -16.4354
  25   2.0000      -0.597291       -16.2531
  26   2.0000      -0.574012       -15.6197
  27   2.0000      -0.540064       -14.6959
  28   2.0000      -0.534203       -14.5364
  29   2.0000      -0.526279       -14.3208
  30   2.0000      -0.511027       -13.9058
  31   2.0000      -0.460248       -12.5240
  32   2.0000      -0.456096       -12.4110
  33   2.0000      -0.446942       -12.1619
  34   2.0000      -0.430994       -11.7279
  35   2.0000      -0.402595       -10.9552
  36   0.0000      -0.393062       -10.6958
  37   0.0000      -0.230217        -6.2645
  38   0.0000      -0.176873        -4.8130
  39   0.0000      -0.165078        -4.4920
  40   0.0000      -0.069809        -1.8996

MULLIKEN ATOMIC CHARGES
-----------------------
   0 C :   -0.014143
   1 C :    0.020654
   2 C :    0.064464
   3 C :    0.136492
   4 C :    0.062011
   5 C :    0.020803
   6 C :    0.059803
   7 H :    0.074443
   8 H :    0.063148
   9 H :    0.095970
  10 H :    0.040224
  11 H :    0.050201
  12 H :    0.050526
  13 H :    0.040345
  14 N :    0.240484
  15 O :   -0.160676
  16 O :   -0.161356
  17 H :    0.316606
Sum of atomic charges:    1.0000000

LOEWDIN ATOMIC CHARGES
----------------------
   0 C :    0.084552
   1 C :    0.023841
   2 C :    0.032812
   3 C :    0.051225
   4 C :    0.028090
   5 C :    0.029434
   6 C :   -0.028347
   7 H :    0.063497
   8 H :    0.052927
   9 H :    0.082105
  10 H :    0.055481
  11 H :    0.062156
  12 H :    0.062184
  13 H :    0.055556
  14 N :    0.275880
  15 O :   -0.123727
  16 O :   -0.124273
  17 H :    0.316606

  Mayer bond orders larger than 0.100000
B(  0-C ,  1-C ) :   1.2522 B(  0-C ,  5-C ) :   1.2324 B(  0-C ,  6-C ) :   1.1075
B(  0-C , 17-H ) :   0.1973 B(  1-C ,  2-C ) :   1.4309 B(  1-C , 10-H ) :   0.9853
B(  2-C ,  3-C ) :   1.2779 B(  2-C , 11-H ) :   0.9872 B(  3-C ,  4-C ) :   1.2845
B(  3-C , 14-N ) :   0.8641 B(  3-C , 17-H ) :   0.2107 B(  4-C ,  5-C ) :   1.4363
B(  4-C , 12-H ) :   0.9874 B(  5-C , 13-H ) :   0.9871 B(  6-C ,  7-H ) :   0.9363
B(  6-C ,  8-H ) :   0.9532 B(  6-C ,  9-H ) :   0.9078 B( 14-N , 15-O ) :   1.5307
B( 14-N , 16-O ) :   1.5273 B( 15-O , 16-O ) :   0.2919 B( 15-O , 17-H ) :   0.1003
B( 16-O , 17-H ) :   0.1056

Dispersion correction           -0.026483456
FINAL SINGLE POINT ENERGY      -475.599232382039

DIPOLE MOMENT
-------------
                                X             Y             Z
Electronic contribution:     -3.28500      -4.55074      -5.84621
Nuclear contribution   :      1.31571       2.61385       3.11398
                        -----------------------------------------
Total Dipole Moment    :     -1.96929      -1.93689      -2.73222
                        -----------------------------------------
Magnitude (a.u.)       :      3.88519
Magnitude (Debye)      :      9.87536

Dispersion correction in the Hessian             ... Starting D4

VIBRATIONAL FREQUENCIES
-----------------------

Scaling factor for frequencies =  1.000000000  (already applied!)

   0:         0.00 cm**-1
   1:         0.00 cm**-1
   2:         0.00 cm**-1
   3:         0.00 cm**-1
   4:         0.00 cm**-1
   5:         0.00 cm**-1
   6:        -6.65 cm**-1 ***imaginary mode***
   7:         2.59 cm**-1
   8:         5.50 cm**-1
   9:        17.30 cm**-1
  10:        77.75 cm**-1
  11:        93.61 cm**-1
  12:       198.77 cm**-1
  13:       240.73 cm**-1
  14:       349.67 cm**-1
  15:       355.74 cm**-1
  16:       391.48 cm**-1
  17:       429.70 cm**-1
  18:       539.57 cm**-1
  19:       588.99 cm**-1
  20:       619.86 cm**-1
  21:       682.92 cm**-1
  22:       751.99 cm**-1
  23:       789.77 cm**-1
  24:       821.75 cm**-1
  25:       844.05 cm**-1
  26:       854.87 cm**-1
  27:       980.81 cm**-1
  28:       990.24 cm**-1
  29:      1006.03 cm**-1
  30:      1015.79 cm**-1
  31:      1022.01 cm**-1
  32:      1138.56 cm**-1
  33:      1143.77 cm**-1
  34:      1202.25 cm**-1
  35:      1253.49 cm**-1
  36:      1290.96 cm**-1
  37:      1345.67 cm**-1
  38:      1370.91 cm**-1
  39:      1417.64 cm**-1
  40:      1422.95 cm**-1
  41:      1434.46 cm**-1
  42:      1455.56 cm**-1
  43:      1485.87 cm**-1
  44:      1491.90 cm**-1
  45:      1601.35 cm**-1
  46:      1660.73 cm**-1
  47:      2981.14 cm**-1
  48:      3072.38 cm**-1
  49:      3148.98 cm**-1
  50:      3203.59 cm**-1
  51:      3206.60 cm**-1
  52:      3228.13 cm**-1
  53:      3228.45 cm**-1

IR SPECTRUM
-----------

 Mode   freq       eps      Int      T**2         TX        TY        TZ
       cm**-1   L/(mol*cm) km/mol    a.u.
----------------------------------------------------------------------------
  7:      2.59   0.000000    0.00  0.000000  ( 0.000000  0.000000  0.000000)
  8:      5.50   0.017902   90.47  1.016438  ( 0.103119 -0.798366  0.606973)
  9:     17.30   0.021737  109.85  0.391996  (-0.262394 -0.359121 -0.440656)
 10:     77.75   0.000083    0.42  0.000334  ( 0.009875  0.010337  0.011376)
 11:     93.61   0.000170    0.86  0.000567  ( 0.014922  0.012094 -0.014069)
 12:    198.77   0.000512    2.59  0.000803  ( 0.019725 -0.020155  0.002854)
 13:    240.73   0.000683    3.45  0.000885  (-0.007698 -0.021678  0.018858)
 14:    349.67   0.000578    2.92  0.000515  (-0.012978 -0.009329 -0.016126)
 15:    355.74   0.000209    1.06  0.000184  ( 0.004710 -0.008712  0.009251)
 16:    391.48   0.000056    0.28  0.000045  (-0.004244 -0.001273 -0.005018)
 17:    429.70   0.000599    3.03  0.000435  ( 0.020812 -0.000850 -0.001154)
 18:    539.57   0.002117   10.70  0.001224  (-0.026785 -0.018937  0.012171)
 19:    588.99   0.000044    0.22  0.000024  ( 0.002983 -0.003794 -0.000465)
 20:    619.86   0.004222   21.33  0.002125  ( 0.020859  0.023908  0.033446)
 21:    682.92   0.000863    4.36  0.000394  (-0.013221 -0.014813  0.000481)
 22:    751.99   0.005245   26.51  0.002177  ( 0.021071  0.012636 -0.039660)
 23:    789.77   0.000609    3.08  0.000241  (-0.003437 -0.006597 -0.013615)
 24:    821.75   0.000667    3.37  0.000253  (-0.007504 -0.009741 -0.010103)
 25:    844.05   0.019443   98.26  0.007189  ( 0.039675  0.044957  0.059945)
 26:    854.87   0.004644   23.47  0.001695  (-0.010676  0.008489  0.038847)
 27:    980.81   0.018482   93.40  0.005880  ( 0.046381  0.041724  0.044589)
 28:    990.24   0.004324   21.85  0.001363  (-0.027788 -0.024302 -0.000019)
 29:   1006.03   0.000093    0.47  0.000029  (-0.002829 -0.002649 -0.003709)
 30:   1015.79   0.001216    6.15  0.000374  ( 0.010293  0.010360  0.012666)
 31:   1022.01   0.005065   25.60  0.001546  (-0.028907 -0.021531 -0.015727)
 32:   1138.56   0.003889   19.65  0.001066  ( 0.025952 -0.003753  0.019448)
 33:   1143.77   0.014807   74.83  0.004040  (-0.027813 -0.035532 -0.044765)
 34:   1202.25   0.020836  105.29  0.005408  ( 0.034461  0.039419  0.051641)
 35:   1253.49   0.040539  204.87  0.010092  (-0.048623 -0.052938 -0.070183)
 36:   1290.96   0.002880   14.55  0.000696  ( 0.008456  0.018195  0.017136)
 37:   1345.67   0.047677  240.94  0.011056  ( 0.064379  0.044631  0.070142)
 38:   1370.91   0.005085   25.70  0.001157  ( 0.010642  0.031685  0.006344)
 39:   1417.64   0.000832    4.21  0.000183  ( 0.012808  0.001928 -0.003927)
 40:   1422.95   0.000518    2.62  0.000114  (-0.006513 -0.004143 -0.007343)
 41:   1434.46   0.009963   50.35  0.002167  (-0.025453  0.037922 -0.009022)
 42:   1455.56   0.012820   64.79  0.002749  ( 0.041853  0.015797  0.027336)
 43:   1485.87   0.003697   18.68  0.000776  ( 0.014196 -0.003136  0.023770)
 44:   1491.90   0.034444  174.07  0.007205  ( 0.034540  0.048563  0.060442)
 45:   1601.35   0.026830  135.59  0.005229  (-0.062783  0.032218  0.015774)
 46:   1660.73   0.174995  884.35  0.032883  (-0.084953 -0.095831 -0.128383)
 47:   2981.14   0.073822  373.07  0.007728  ( 0.044878  0.047166  0.059068)
 48:   3072.38   0.000190    0.96  0.000019  (-0.002356 -0.002154  0.003022)
 49:   3148.98   0.005153   26.04  0.000511  ( 0.009992  0.012321  0.016094)
 50:   3203.59   0.000119    0.60  0.000012  (-0.000752 -0.002961 -0.001510)
 51:   3206.60   0.000211    1.07  0.000021  (-0.002719 -0.000980 -0.003495)
 52:   3228.13   0.003409   17.23  0.000330  ( 0.010139 -0.014852  0.002492)
 53:   3228.45   0.000642    3.25  0.000062  (-0.005729  0.001898 -0.005064)

--------------------------
THERMOCHEMISTRY AT 298.15K
--------------------------

Temperature         ... 298.15 K
Pressure            ... 1.00 atm
Total Mass          ... 138.15 AMU

Throughout the following assumptions are being made:
  (1) The electronic state is orbitally nondegenerate
  (2) There are no thermally accessible electronically excited states
  (3) Hindered rotations indicated by low frequency modes are not
      treated as such but are treated as vibrations and this may
      cause some error
  (4) All equations used are the standard statistical mechanics
      equations for an ideal gas
  (5) All vibrations are strictly harmonic

freq.       2.59  E(vib)   ...       0.59
freq.       5.50  E(vib)   ...       0.58
freq.      17.30  E(vib)   ...       0.57
freq.      77.75  E(vib)   ...       0.49
freq.      93.61  E(vib)   ...       0.47
freq.     198.77  E(vib)   ...       0.35
freq.     240.73  E(vib)   ...       0.31
freq.     349.67  E(vib)   ...       0.23
freq.     355.74  E(vib)   ...       0.22
freq.     391.48  E(vib)   ...       0.20
freq.     429.70  E(vib)   ...       0.18
freq.     539.57  E(vib)   ...       0.12
freq.     588.99  E(vib)   ...       0.10
freq.     619.86  E(vib)   ...       0.09
freq.     682.92  E(vib)   ...       0.08
freq.     751.99  E(vib)   ...       0.06
freq.     789.77  E(vib)   ...       0.05
freq.     821.75  E(vib)   ...       0.05
freq.     844.05  E(vib)   ...       0.04
freq.     854.87  E(vib)   ...       0.04
freq.     980.81  E(vib)   ...       0.02
freq.     990.24  E(vib)   ...       0.02
freq.    1006.03  E(vib)   ...       0.02
freq.    1015.79  E(vib)   ...       0.02
freq.    1022.01  E(vib)   ...       0.02
freq.    1138.56  E(vib)   ...       0.01
freq.    1143.77  E(vib)   ...       0.01
freq.    1202.25  E(vib)   ...       0.01
freq.    1253.49  E(vib)   ...       0.01
freq.    1290.96  E(vib)   ...       0.01
freq.    1345.67  E(vib)   ...       0.01
freq.    1370.91  E(vib)   ...       0.01
freq.    1417.64  E(vib)   ...       0.00
freq.    1422.95  E(vib)   ...       0.00
freq.    1434.46  E(vib)   ...       0.00
freq.    1455.56  E(vib)   ...       0.00
freq.    1485.87  E(vib)   ...       0.00
freq.    1491.90  E(vib)   ...       0.00
freq.    1601.35  E(vib)   ...       0.00
freq.    1660.73  E(vib)   ...       0.00
freq.    2981.14  E(vib)   ...       0.00
freq.    3072.38  E(vib)   ...       0.00
freq.    3148.98  E(vib)   ...       0.00
freq.    3203.59  E(vib)   ...       0.00
freq.    3206.60  E(vib)   ...       0.00
freq.    3228.13  E(vib)   ...       0.00
freq.    3228.45  E(vib)   ...       0.00

------------
INNER ENERGY
------------

The inner energy is: U= E(el) + E(ZPE) + E(vib) + E(rot) + E(trans)
    E(el)   - is the total energy from the electronic structure calculation
              = E(kin-el) + E(nuc-el) + E(el-el) + E(nuc-nuc)
    E(ZPE)  - the the zero temperature vibrational energy from the frequency calculation
    E(vib)  - the the finite temperature correction to E(ZPE) due to population
              of excited vibrational states
    E(rot)  - is the rotational thermal energy
    E(trans)- is the translational thermal energy

Summary of contributions to the inner energy U:
Electronic energy                ...   -475.59923238 Eh
Zero point energy                ...      0.12861814 Eh      80.71 kcal/mol
Thermal vibrational correction   ...      0.00801461 Eh       5.03 kcal/mol
Thermal rotational correction    ...      0.00141627 Eh       0.89 kcal/mol
Thermal translational correction ...      0.00141627 Eh       0.89 kcal/mol
-----------------------------------------------------------------------
Total thermal energy                   -475.45976709 Eh

Summary of corrections to the electronic energy:
(perhaps to be used in another calculation)
Total thermal correction                  0.01084715 Eh       6.81 kcal/mol
Non-thermal (ZPE) correction              0.12861814 Eh      80.71 kcal/mol
-----------------------------------------------------------------------
Total correction                          0.13946529 Eh      87.52 kcal/mol

--------
ENTHALPY
--------

The enthalpy is H = U + kB*T
                kB is Boltzmann's constant
Total free energy                 ...   -475.45976709 Eh
Thermal Enthalpy correction       ...      0.00094421 Eh       0.59 kcal/mol
-----------------------------------------------------------------------
Total Enthalpy                    ...   -475.45882288 Eh

Note: Only C1 symmetry has been detected, increase convergence thresholds
      if your molecule has a higher symmetry. Symmetry factor of 1.0 is
      used for the rotational entropy correction.

Note: Rotational entropy computed according to Herzberg
Infrared and Raman Spectra, Chapter V,1, Van Nostrand Reinhold, 1945
Point Group:  C1, Symmetry Number:   1
Rotational constants in cm-1:     0.126428     0.022613     0.019709

Vibrational entropy computed according to the QRRHO of S. Grimme
Chem.Eur.J. 2012 18 9955

-------
ENTROPY
-------

The entropy contributions are T*S = T*(S(el)+S(vib)+S(rot)+S(trans))
     S(el)   - electronic entropy
     S(vib)  - vibrational entropy
     S(rot)  - rotational entropy
     S(trans)- translational entropy
The entropies will be listed as multiplied by the temperature to get
units of energy

Electronic entropy                ...      0.00000000 Eh      0.00 kcal/mol
Vibrational entropy               ...      0.01666652 Eh     10.46 kcal/mol
Rotational entropy                ...      0.01412976 Eh      8.87 kcal/mol
Translational entropy             ...      0.01932890 Eh     12.13 kcal/mol
-----------------------------------------------------------------------
Final entropy term                ...      0.05012518 Eh     31.45 kcal/mol

In case the symmetry of your molecule has not been determined correctly
or in case you have a reason to use a different symmetry number we print
out the resulting rotational entropy values for sn=1,12 :
 --------------------------------------------------------
|  sn= 1 | S(rot)=       0.01412976 Eh      8.87 kcal/mol|
|  sn= 2 | S(rot)=       0.01347531 Eh      8.46 kcal/mol|
|  sn= 3 | S(rot)=       0.01309247 Eh      8.22 kcal/mol|
|  sn= 4 | S(rot)=       0.01282085 Eh      8.05 kcal/mol|
|  sn= 5 | S(rot)=       0.01261016 Eh      7.91 kcal/mol|
|  sn= 6 | S(rot)=       0.01243802 Eh      7.80 kcal/mol|
|  sn= 7 | S(rot)=       0.01229247 Eh      7.71 kcal/mol|
|  sn= 8 | S(rot)=       0.01216639 Eh      7.63 kcal/mol|
|  sn= 9 | S(rot)=       0.01205518 Eh      7.56 kcal/mol|
|  sn=10 | S(rot)=       0.01195570 Eh      7.50 kcal/mol|
|  sn=11 | S(rot)=       0.01186571 Eh      7.45 kcal/mol|
|  sn=12 | S(rot)=       0.01178356 Eh      7.39 kcal/mol|
 --------------------------------------------------------

-------------------

                             ****ORCA TERMINATED NORMALLY****
TOTAL RUN TIME: 0 days 3 hours 10 minutes 56 seconds 679 msec
