                         Program Version 5.0.4 -  RELEASE  -
|  1> !BP86 cc-pVTZ OPT FREQ D4
|  2>
|  3> * xyz 0 1
|  4>    C       -3.00086        2.28181       -0.01304
|  5>    C       -4.38196        2.01747        0.01821
|  6>    C       -4.87347        0.70800        0.02671
|  7>    C       -3.97815       -0.35080        0.00835
|  8>    C       -2.61080       -0.11453       -0.02147
|  9>    C       -2.12230        1.19872       -0.03444
| 10>    H       -5.10106        2.83433        0.03503
| 11>    H       -5.94617        0.54191        0.04934
| 12>    H       -1.04763        1.30869       -0.06486
| 13>    H       -1.91777       -0.95217       -0.03809
| 14>    O       -4.40149       -1.64509        0.01652
| 15>    H       -5.37293       -1.65684        0.03620
| 16>    N       -2.63740        3.64047       -0.02826
| 17>    C       -1.45662        4.31757        0.00220
| 18>    H       -3.40641        4.30223       -0.05329
| 19>    C       -0.13246        3.61554        0.04974
| 20>    H        0.01924        3.03404       -0.86667
| 21>    H       -0.06097        2.99537        0.94596
| 22>    H        0.66929        4.36292        0.09806
| 23>    O       -1.50293        5.55204       -0.01100
| 24> **                         ****END OF INPUT****
 Total Charge           Charge          ....    0
 Multiplicity           Mult            ....    1
 Number of Electrons    NEL             ....   80
Dispersion correction           -0.027902465
FINAL SINGLE POINT ENERGY      -515.703080822915
Dispersion correction            ... Starting D4
Dispersion correction           -0.027852277
FINAL SINGLE POINT ENERGY      -515.704954878919
Dispersion correction            ... Starting D4
Dispersion correction           -0.027788288
FINAL SINGLE POINT ENERGY      -515.705465612402
Dispersion correction            ... Starting D4
FINAL SINGLE POINT ENERGY      -515.705517238686
FINAL SINGLE POINT ENERGY      -515.705531254734
FINAL SINGLE POINT ENERGY      -515.705539236117
FINAL SINGLE POINT ENERGY      -515.705567284590
FINAL SINGLE POINT ENERGY      -515.705641541511
FINAL SINGLE POINT ENERGY      -515.705705121544
FINAL SINGLE POINT ENERGY      -515.705965207618
FINAL SINGLE POINT ENERGY      -515.706617386878
FINAL SINGLE POINT ENERGY      -515.706951095702
FINAL SINGLE POINT ENERGY      -515.706942240872
FINAL SINGLE POINT ENERGY      -515.707194614834
FINAL SINGLE POINT ENERGY      -515.707207319156
Dispersion correction           -0.028134594
FINAL SINGLE POINT ENERGY      -515.707213991435
Dispersion correction            ... Starting D4
Dispersion correction           -0.028139647
FINAL SINGLE POINT ENERGY      -515.707218210754
Dispersion correction            ... Starting D4
                    ***********************HURRAY********************

CARTESIAN COORDINATES (ANGSTROEM)
---------------------------------
  C     -3.007070    2.326022   -0.326997
  C     -4.290273    2.070447    0.175059
  C     -4.737581    0.763597    0.358118
  C     -3.895511   -0.314609    0.061599
  C     -2.613523   -0.069611   -0.443630
  C     -2.183882    1.237269   -0.651945
  H     -4.941531    2.906428    0.432115
  H     -5.741583    0.582974    0.747989
  H     -1.203265    1.414527   -1.089354
  H     -1.971991   -0.913897   -0.691865
  O     -4.271236   -1.622648    0.235314
  H     -5.179017   -1.640542    0.582225
  N     -2.595286    3.665342   -0.533479
  C     -1.427130    4.310589   -0.160853
  H     -3.286050    4.313465   -0.906137
  C     -0.369181    3.505064    0.566747
  H      0.318539    3.044405   -0.155962
  H     -0.790865    2.705958    1.187964
  H      0.207475    4.202779    1.181901
  O     -1.283889    5.504122   -0.413611

 Multiplicity           Mult            ....    1
 Number of Electrons    NEL             ....   80
 Basis Dimension        Dim             ....  456

ORBITAL ENERGIES
----------------

  NO   OCC          E(Eh)            E(eV)
   0   2.0000     -18.815269      -511.9895
   1   2.0000     -18.733669      -509.7690
   2   2.0000     -14.037901      -381.9907
   3   2.0000      -9.997770      -272.0532
   4   2.0000      -9.975103      -271.4364
   5   2.0000      -9.953454      -270.8473
   6   2.0000      -9.921447      -269.9763
   7   2.0000      -9.920511      -269.9508
   8   2.0000      -9.919543      -269.9245
   9   2.0000      -9.914743      -269.7939
  10   2.0000      -9.904167      -269.5061
  11   2.0000      -0.987835       -26.8803
  12   2.0000      -0.947833       -25.7919
  13   2.0000      -0.858926       -23.3726
  14   2.0000      -0.783746       -21.3268
  15   2.0000      -0.698983       -19.0203
  16   2.0000      -0.683559       -18.6006
  17   2.0000      -0.671225       -18.2650
  18   2.0000      -0.590003       -16.0548
  19   2.0000      -0.569254       -15.4902
  20   2.0000      -0.531435       -14.4611
  21   2.0000      -0.510200       -13.8832
  22   2.0000      -0.488905       -13.3038
  23   2.0000      -0.444739       -12.1020
  24   2.0000      -0.423140       -11.5142
  25   2.0000      -0.414110       -11.2685
  26   2.0000      -0.402215       -10.9448
  27   2.0000      -0.394291       -10.7292
  28   2.0000      -0.380765       -10.3611
  29   2.0000      -0.378506       -10.2997
  30   2.0000      -0.361379        -9.8336
  31   2.0000      -0.357513        -9.7284
  32   2.0000      -0.345809        -9.4099
  33   2.0000      -0.333784        -9.0827
  34   2.0000      -0.316516        -8.6128
  35   2.0000      -0.311671        -8.4810
  36   2.0000      -0.251075        -6.8321
  37   2.0000      -0.248018        -6.7489
  38   2.0000      -0.212888        -5.7930
  39   2.0000      -0.196860        -5.3568
  40   0.0000      -0.060535        -1.6472
  41   0.0000      -0.048800        -1.3279
  42   0.0000      -0.012093        -0.3291
  43   0.0000       0.001778         0.0484
  44   0.0000       0.017647         0.4802

MULLIKEN ATOMIC CHARGES
-----------------------
   0 C :    0.150014
   1 C :   -0.165681
   2 C :   -0.187925
   3 C :    0.197495
   4 C :   -0.135642
   5 C :   -0.133603
   6 H :    0.113578
   7 H :    0.090747
   8 H :    0.119583
   9 H :    0.118207
  10 O :   -0.264633
  11 H :    0.211881
  12 N :   -0.145802
  13 C :    0.175552
  14 H :    0.141886
  15 C :   -0.332900
  16 H :    0.118162
  17 H :    0.118041
  18 H :    0.123763
  19 O :   -0.312724
Sum of atomic charges:   -0.0000000

LOEWDIN ATOMIC CHARGES
----------------------
   0 C :   -0.154650
   1 C :    0.024815
   2 C :    0.005511
   3 C :   -0.222374
   4 C :    0.026292
   5 C :    0.030203
   6 H :   -0.023225
   7 H :   -0.029004
   8 H :   -0.021617
   9 H :   -0.021032
  10 O :    0.440636
  11 H :   -0.161089
  12 N :    0.421603
  13 C :   -0.445093
  14 H :   -0.062921
  15 C :    0.091566
  16 H :   -0.014245
  17 H :   -0.019981
  18 H :   -0.010386
  19 O :    0.144991

  Mayer bond orders larger than 0.100000
B(  0-C ,  1-C ) :   1.3267 B(  0-C ,  5-C ) :   1.2859 B(  0-C , 12-N ) :   1.0075
B(  1-C ,  2-C ) :   1.3579 B(  1-C ,  6-H ) :   0.9648 B(  2-C ,  3-C ) :   1.2935
B(  2-C ,  7-H ) :   0.9765 B(  3-C ,  4-C ) :   1.2993 B(  3-C , 10-O ) :   1.1729
B(  4-C ,  5-C ) :   1.3899 B(  4-C ,  9-H ) :   0.9654 B(  5-C ,  8-H ) :   0.9684
B( 10-O , 11-H ) :   0.9995 B( 12-N , 13-C ) :   1.1702 B( 12-N , 14-H ) :   0.9482
B( 13-C , 15-C ) :   0.9199 B( 13-C , 19-O ) :   2.1398 B( 15-C , 16-H ) :   0.9465
B( 15-C , 17-H ) :   0.9441 B( 15-C , 18-H ) :   0.9624

Dispersion correction           -0.028140572
FINAL SINGLE POINT ENERGY      -515.707220036960

DIPOLE MOMENT
-------------
                                X             Y             Z
Electronic contribution:     -3.13891      -0.28576      -1.63185
Nuclear contribution   :      2.18692      -0.95196       1.99410
                        -----------------------------------------
Total Dipole Moment    :     -0.95199      -1.23771       0.36225
                        -----------------------------------------
Magnitude (a.u.)       :      1.60295
Magnitude (Debye)      :      4.07437

Dispersion correction in the Hessian             ... Starting D4

VIBRATIONAL FREQUENCIES
-----------------------

Scaling factor for frequencies =  1.000000000  (already applied!)

   0:         0.00 cm**-1
   1:         0.00 cm**-1
   2:         0.00 cm**-1
   3:         0.00 cm**-1
   4:         0.00 cm**-1
   5:         0.00 cm**-1
   6:        41.67 cm**-1
   7:        62.79 cm**-1
   8:       100.85 cm**-1
   9:       152.38 cm**-1
  10:       194.20 cm**-1
  11:       314.47 cm**-1
  12:       350.92 cm**-1
  13:       357.11 cm**-1
  14:       361.42 cm**-1
  15:       412.45 cm**-1
  16:       419.41 cm**-1
  17:       486.87 cm**-1
  18:       500.00 cm**-1
  19:       523.11 cm**-1
  20:       583.64 cm**-1
  21:       626.68 cm**-1
  22:       638.82 cm**-1
  23:       703.83 cm**-1
  24:       762.32 cm**-1
  25:       782.15 cm**-1
  26:       814.80 cm**-1
  27:       822.25 cm**-1
  28:       895.05 cm**-1
  29:       906.19 cm**-1
  30:       930.95 cm**-1
  31:       988.29 cm**-1
  32:       999.85 cm**-1
  33:      1012.82 cm**-1
  34:      1094.26 cm**-1
  35:      1156.35 cm**-1
  36:      1161.70 cm**-1
  37:      1217.05 cm**-1
  38:      1257.68 cm**-1
  39:      1293.47 cm**-1
  40:      1296.03 cm**-1
  41:      1346.47 cm**-1
  42:      1352.39 cm**-1
  43:      1394.75 cm**-1
  44:      1422.89 cm**-1
  45:      1436.22 cm**-1
  46:      1450.14 cm**-1
  47:      1503.96 cm**-1
  48:      1588.65 cm**-1
  49:      1613.23 cm**-1
  50:      1695.37 cm**-1
  51:      2979.45 cm**-1
  52:      3044.26 cm**-1
  53:      3079.98 cm**-1
  54:      3081.09 cm**-1
  55:      3106.02 cm**-1
  56:      3116.85 cm**-1
  57:      3131.72 cm**-1
  58:      3482.94 cm**-1
  59:      3690.47 cm**-1

IR SPECTRUM
-----------

 Mode   freq       eps      Int      T**2         TX        TY        TZ
       cm**-1   L/(mol*cm) km/mol    a.u.
----------------------------------------------------------------------------
  6:     41.67   0.000352    1.78  0.002638  ( 0.036110  0.026406 -0.025233)
  7:     62.79   0.000398    2.01  0.001979  ( 0.024983 -0.000507 -0.036800)
  8:    100.85   0.000186    0.94  0.000576  (-0.019836  0.013334 -0.002185)
  9:    152.38   0.000011    0.05  0.000022  (-0.003691 -0.000623 -0.002801)
 10:    194.20   0.000341    1.72  0.000548  ( 0.015848  0.000649  0.017203)
 11:    314.47   0.000044    0.22  0.000044  ( 0.006041 -0.002727 -0.000310)
 12:    350.92   0.000451    2.28  0.000401  (-0.018197 -0.005595 -0.006186)
 13:    357.11   0.012404   62.68  0.010839  (-0.031884  0.011375 -0.098455)
 14:    361.42   0.006822   34.48  0.005891  ( 0.034320  0.024168  0.064254)
 15:    412.45   0.000335    1.69  0.000254  (-0.001490 -0.010437  0.011936)
 16:    419.41   0.002036   10.29  0.001515  (-0.010270 -0.037288  0.004389)
 17:    486.87   0.000331    1.68  0.000212  ( 0.010056  0.007256 -0.007660)
 18:    500.00   0.009008   45.52  0.005622  (-0.016808 -0.049648 -0.053614)
 19:    523.11   0.004418   22.33  0.002635  (-0.044600  0.004293 -0.025057)
 20:    583.64   0.002474   12.50  0.001323  (-0.009332 -0.034616  0.006106)
 21:    626.68   0.010532   53.22  0.005245  (-0.000687 -0.026900 -0.067234)
 22:    638.82   0.001727    8.73  0.000844  ( 0.005063  0.015847  0.023811)
 23:    703.83   0.000223    1.12  0.000099  (-0.008035  0.001383 -0.005675)
 24:    762.32   0.002366   11.96  0.000968  (-0.013502 -0.013209 -0.024733)
 25:    782.15   0.000508    2.57  0.000203  (-0.004544 -0.000555 -0.013485)
 26:    814.80   0.006727   34.00  0.002577  (-0.008414  0.018377 -0.046562)
 27:    822.25   0.003161   15.97  0.001200  ( 0.011448  0.022811  0.023416)
 28:    895.05   0.000449    2.27  0.000157  (-0.010035  0.003160 -0.006783)
 29:    906.19   0.000676    3.42  0.000233  ( 0.009274 -0.005200  0.010950)
 30:    930.95   0.000017    0.09  0.000006  (-0.001951  0.001168 -0.000834)
 31:    988.29   0.004304   21.75  0.001359  (-0.024477 -0.027158 -0.004737)
 32:    999.85   0.000022    0.11  0.000007  (-0.001063 -0.000120  0.002424)
 33:   1012.82   0.001214    6.14  0.000374  ( 0.013609  0.008944 -0.010435)
 34:   1094.26   0.003515   17.76  0.001002  ( 0.025564  0.012525 -0.013856)
 35:   1156.35   0.008321   42.05  0.002245  (-0.022341 -0.041764  0.001445)
 36:   1161.70   0.030107  152.15  0.008088  ( 0.022142  0.086702 -0.008955)
 37:   1217.05   0.003954   19.98  0.001014  ( 0.014176 -0.024181  0.015101)
 38:   1257.68   0.034073  172.19  0.008454  (-0.052961 -0.075100  0.003091)
 39:   1293.47   0.005247   26.51  0.001266  ( 0.032581  0.013358  0.005088)
 40:   1296.03   0.027138  137.14  0.006534  (-0.057586 -0.055545 -0.011527)
 41:   1346.47   0.022804  115.24  0.005285  ( 0.065415  0.027106  0.016468)
 42:   1352.39   0.009391   47.46  0.002167  (-0.026313 -0.037861  0.006415)
 43:   1394.75   0.002315   11.70  0.000518  (-0.015935 -0.015944 -0.003131)
 44:   1422.89   0.003063   15.48  0.000672  ( 0.011455  0.021490  0.008867)
 45:   1436.22   0.002117   10.70  0.000460  (-0.003853 -0.011299 -0.017819)
 46:   1450.14   0.003183   16.08  0.000685  (-0.006177  0.021980 -0.012793)
 47:   1503.96   0.042823  216.41  0.008886  (-0.036647 -0.086455  0.008261)
 48:   1588.65   0.000778    3.93  0.000153  (-0.002783 -0.012040  0.000271)
 49:   1613.23   0.001255    6.34  0.000243  ( 0.005200  0.014226 -0.003661)
 50:   1695.37   0.088749  448.50  0.016336  (-0.039310 -0.120654  0.015273)
 51:   2979.45   0.000721    3.65  0.000076  ( 0.005831 -0.005931  0.002528)
 52:   3044.26   0.001367    6.91  0.000140  (-0.000979 -0.000023  0.011798)
 53:   3079.98   0.001795    9.07  0.000182  (-0.007882 -0.010916 -0.000736)
 54:   3081.09   0.003520   17.79  0.000357  (-0.012112 -0.013833  0.004298)
 55:   3106.02   0.001443    7.29  0.000145  (-0.009114  0.007272  0.003013)
 56:   3116.85   0.001011    5.11  0.000101  ( 0.003976  0.009102 -0.001605)
 57:   3131.72   0.000744    3.76  0.000074  ( 0.007417 -0.002138 -0.003811)
 58:   3482.94   0.003821   19.31  0.000342  ( 0.013697 -0.009878  0.007561)
 59:   3690.47   0.011655   58.90  0.000986  ( 0.024079  0.018139 -0.008758)

--------------------------
THERMOCHEMISTRY AT 298.15K
--------------------------

Temperature         ... 298.15 K
Pressure            ... 1.00 atm
Total Mass          ... 151.16 AMU

Throughout the following assumptions are being made:
  (1) The electronic state is orbitally nondegenerate
  (2) There are no thermally accessible electronically excited states
  (3) Hindered rotations indicated by low frequency modes are not
      treated as such but are treated as vibrations and this may
      cause some error
  (4) All equations used are the standard statistical mechanics
      equations for an ideal gas
  (5) All vibrations are strictly harmonic

freq.      41.67  E(vib)   ...       0.53
freq.      62.79  E(vib)   ...       0.51
freq.     100.85  E(vib)   ...       0.46
freq.     152.38  E(vib)   ...       0.40
freq.     194.20  E(vib)   ...       0.36
freq.     314.47  E(vib)   ...       0.25
freq.     350.92  E(vib)   ...       0.23
freq.     357.11  E(vib)   ...       0.22
freq.     361.42  E(vib)   ...       0.22
freq.     412.45  E(vib)   ...       0.19
freq.     419.41  E(vib)   ...       0.18
freq.     486.87  E(vib)   ...       0.15
freq.     500.00  E(vib)   ...       0.14
freq.     523.11  E(vib)   ...       0.13
freq.     583.64  E(vib)   ...       0.11
freq.     626.68  E(vib)   ...       0.09
freq.     638.82  E(vib)   ...       0.09
freq.     703.83  E(vib)   ...       0.07
freq.     762.32  E(vib)   ...       0.06
freq.     782.15  E(vib)   ...       0.05
freq.     814.80  E(vib)   ...       0.05
freq.     822.25  E(vib)   ...       0.05
freq.     895.05  E(vib)   ...       0.03
freq.     906.19  E(vib)   ...       0.03
freq.     930.95  E(vib)   ...       0.03
freq.     988.29  E(vib)   ...       0.02
freq.     999.85  E(vib)   ...       0.02
freq.    1012.82  E(vib)   ...       0.02
freq.    1094.26  E(vib)   ...       0.02
freq.    1156.35  E(vib)   ...       0.01
freq.    1161.70  E(vib)   ...       0.01
freq.    1217.05  E(vib)   ...       0.01
freq.    1257.68  E(vib)   ...       0.01
freq.    1293.47  E(vib)   ...       0.01
freq.    1296.03  E(vib)   ...       0.01
freq.    1346.47  E(vib)   ...       0.01
freq.    1352.39  E(vib)   ...       0.01
freq.    1394.75  E(vib)   ...       0.00
freq.    1422.89  E(vib)   ...       0.00
freq.    1436.22  E(vib)   ...       0.00
freq.    1450.14  E(vib)   ...       0.00
freq.    1503.96  E(vib)   ...       0.00
freq.    1588.65  E(vib)   ...       0.00
freq.    1613.23  E(vib)   ...       0.00
freq.    1695.37  E(vib)   ...       0.00
freq.    2979.45  E(vib)   ...       0.00
freq.    3044.26  E(vib)   ...       0.00
freq.    3079.98  E(vib)   ...       0.00
freq.    3081.09  E(vib)   ...       0.00
freq.    3106.02  E(vib)   ...       0.00
freq.    3116.85  E(vib)   ...       0.00
freq.    3131.72  E(vib)   ...       0.00
freq.    3482.94  E(vib)   ...       0.00
freq.    3690.47  E(vib)   ...       0.00

------------
INNER ENERGY
------------

The inner energy is: U= E(el) + E(ZPE) + E(vib) + E(rot) + E(trans)
    E(el)   - is the total energy from the electronic structure calculation
              = E(kin-el) + E(nuc-el) + E(el-el) + E(nuc-nuc)
    E(ZPE)  - the the zero temperature vibrational energy from the frequency calculation
    E(vib)  - the the finite temperature correction to E(ZPE) due to population
              of excited vibrational states
    E(rot)  - is the rotational thermal energy
    E(trans)- is the translational thermal energy

Summary of contributions to the inner energy U:
Electronic energy                ...   -515.70722004 Eh
Zero point energy                ...      0.15432016 Eh      96.84 kcal/mol
Thermal vibrational correction   ...      0.00765005 Eh       4.80 kcal/mol
Thermal rotational correction    ...      0.00141627 Eh       0.89 kcal/mol
Thermal translational correction ...      0.00141627 Eh       0.89 kcal/mol
-----------------------------------------------------------------------
Total thermal energy                   -515.54241729 Eh

Summary of corrections to the electronic energy:
(perhaps to be used in another calculation)
Total thermal correction                  0.01048259 Eh       6.58 kcal/mol
Non-thermal (ZPE) correction              0.15432016 Eh      96.84 kcal/mol
-----------------------------------------------------------------------
Total correction                          0.16480275 Eh     103.42 kcal/mol

--------
ENTHALPY
--------

The enthalpy is H = U + kB*T
                kB is Boltzmann's constant
Total free energy                 ...   -515.54241729 Eh
Thermal Enthalpy correction       ...      0.00094421 Eh       0.59 kcal/mol
-----------------------------------------------------------------------
Total Enthalpy                    ...   -515.54147308 Eh

Note: Only C1 symmetry has been detected, increase convergence thresholds
      if your molecule has a higher symmetry. Symmetry factor of 1.0 is
      used for the rotational entropy correction.

Note: Rotational entropy computed according to Herzberg
Infrared and Raman Spectra, Chapter V,1, Van Nostrand Reinhold, 1945
Point Group:  C1, Symmetry Number:   1
Rotational constants in cm-1:     0.110582     0.018335     0.016521

Vibrational entropy computed according to the QRRHO of S. Grimme
Chem.Eur.J. 2012 18 9955

-------
ENTROPY
-------

The entropy contributions are T*S = T*(S(el)+S(vib)+S(rot)+S(trans))
     S(el)   - electronic entropy
     S(vib)  - vibrational entropy
     S(rot)  - rotational entropy
     S(trans)- translational entropy
The entropies will be listed as multiplied by the temperature to get
units of energy

Electronic entropy                ...      0.00000000 Eh      0.00 kcal/mol
Vibrational entropy               ...      0.01294443 Eh      8.12 kcal/mol
Rotational entropy                ...      0.01437527 Eh      9.02 kcal/mol
Translational entropy             ...      0.01945645 Eh     12.21 kcal/mol
-----------------------------------------------------------------------
Final entropy term                ...      0.04677614 Eh     29.35 kcal/mol

In case the symmetry of your molecule has not been determined correctly
or in case you have a reason to use a different symmetry number we print
out the resulting rotational entropy values for sn=1,12 :
 --------------------------------------------------------
|  sn= 1 | S(rot)=       0.01437527 Eh      9.02 kcal/mol|
|  sn= 2 | S(rot)=       0.01372081 Eh      8.61 kcal/mol|
|  sn= 3 | S(rot)=       0.01333798 Eh      8.37 kcal/mol|
|  sn= 4 | S(rot)=       0.01306635 Eh      8.20 kcal/mol|
|  sn= 5 | S(rot)=       0.01285567 Eh      8.07 kcal/mol|
|  sn= 6 | S(rot)=       0.01268352 Eh      7.96 kcal/mol|
|  sn= 7 | S(rot)=       0.01253798 Eh      7.87 kcal/mol|
|  sn= 8 | S(rot)=       0.01241190 Eh      7.79 kcal/mol|
|  sn= 9 | S(rot)=       0.01230069 Eh      7.72 kcal/mol|

                             ****ORCA TERMINATED NORMALLY****
TOTAL RUN TIME: 0 days 1 hours 44 minutes 6 seconds 532 msec
