                         Program Version 4.2.1 -  RELEASE  -
|  1> !B3LYP DEF2-SVP D4 OPT FREQ
|  2>
|  3> %geom
|  4> maxIter 150
|  5> end
|  6>
|  7> * xyz 1 1
|  8>    C       -4.06800        2.51005       -0.52930
|  9>    C       -4.96526        1.90565       -1.42132
| 10>    C       -4.74172        0.58484       -1.89837
| 11>    C       -3.55432       -0.08351       -1.49964
| 12>    C       -2.66869        0.52094       -0.60637
| 13>    C       -2.92804        1.80432       -0.12222
| 14>    C       -4.31990        3.89173        0.00026
| 15>    H       -3.32882       -1.08297       -1.87121
| 16>    H       -5.85377        2.45245       -1.73936
| 17>    H       -4.51981        3.85059        1.07567
| 18>    H       -5.18155        4.35823       -0.48837
| 19>    H       -3.44965        4.53107       -0.18041
| 20>    H       -2.22462        2.26039        0.57269
| 21>    H       -1.77015       -0.00542       -0.29208
| 22>    N       -5.13551        0.35627       -3.35304
| 23>    O       -4.73714       -0.68551       -3.89289
| 24>    O       -5.87875        1.19289       -3.88452
| 25>    H       -5.59438       -0.03651       -1.50894
| 26> **                         ****END OF INPUT****
 Total Charge           Charge          ....    1
 Multiplicity           Mult            ....    1
 Number of Electrons    NEL             ....   72
Dispersion correction           -0.027177385
FINAL SINGLE POINT ENERGY      -475.739582282337
Dispersion correction            ...
Dispersion correction           -0.027039490
FINAL SINGLE POINT ENERGY      -475.750819148817
Dispersion correction            ...
Dispersion correction           -0.026974242
FINAL SINGLE POINT ENERGY      -475.753106000577
Dispersion correction            ...
FINAL SINGLE POINT ENERGY      -475.753106079523
FINAL SINGLE POINT ENERGY      -475.753017782506
FINAL SINGLE POINT ENERGY      -475.753403593458
Dispersion correction           -0.026944193
FINAL SINGLE POINT ENERGY      -475.753410481956
Dispersion correction            ...
Dispersion correction           -0.026945870
FINAL SINGLE POINT ENERGY      -475.753415438159
Dispersion correction            ...
                    ***********************HURRAY********************

CARTESIAN COORDINATES (ANGSTROEM)
---------------------------------
  C     -4.107980    2.533334   -0.523267
  C     -4.961529    1.943445   -1.432101
  C     -4.758381    0.560835   -1.881039
  C     -3.512973   -0.117573   -1.506296
  C     -2.670982    0.480555   -0.603266
  C     -2.963887    1.780658   -0.132196
  C     -4.324995    3.919498    0.014282
  H     -3.310475   -1.100631   -1.939218
  H     -5.834659    2.471280   -1.825102
  H     -4.506626    3.885657    1.101404
  H     -5.186481    4.406181   -0.461819
  H     -3.434308    4.547006   -0.150119
  H     -2.250302    2.250938    0.554018
  H     -1.758683   -0.021353   -0.274173
  N     -5.157623    0.331207   -3.408454
  O     -4.696943   -0.657092   -3.911985
  O     -5.911458    1.145515   -3.867920
  H     -5.571796   -0.033961   -1.392170

 Multiplicity           Mult            ....    1
 Number of Electrons    NEL             ....   72
 Basis Dimension        Dim             ....  180

ORBITAL ENERGIES
----------------

  NO   OCC          E(Eh)            E(eV)
   0   2.0000     -19.351585      -526.5834
   1   2.0000     -19.351218      -526.5734
   2   2.0000     -14.746729      -401.2789
   3   2.0000     -10.454691      -284.4866
   4   2.0000     -10.442962      -284.1674
   5   2.0000     -10.437054      -284.0067
   6   2.0000     -10.430994      -283.8418
   7   2.0000     -10.415354      -283.4162
   8   2.0000     -10.410767      -283.2914
   9   2.0000     -10.354207      -281.7523
  10   2.0000      -1.414317       -38.4855
  11   2.0000      -1.249917       -34.0120
  12   2.0000      -1.084517       -29.5112
  13   2.0000      -0.997860       -27.1531
  14   2.0000      -0.977480       -26.5986
  15   2.0000      -0.875190       -23.8151
  16   2.0000      -0.874830       -23.8053
  17   2.0000      -0.806527       -21.9467
  18   2.0000      -0.780261       -21.2320
  19   2.0000      -0.737250       -20.0616
  20   2.0000      -0.736108       -20.0305
  21   2.0000      -0.704957       -19.1829
  22   2.0000      -0.694815       -18.9069
  23   2.0000      -0.676028       -18.3957
  24   2.0000      -0.665062       -18.0973
  25   2.0000      -0.636087       -17.3088
  26   2.0000      -0.618359       -16.8264
  27   2.0000      -0.594602       -16.1799
  28   2.0000      -0.581329       -15.8188
  29   2.0000      -0.557574       -15.1724
  30   2.0000      -0.547981       -14.9113
  31   2.0000      -0.533777       -14.5248
  32   2.0000      -0.496666       -13.5150
  33   2.0000      -0.485869       -13.2212
  34   2.0000      -0.479994       -13.0613
  35   2.0000      -0.466534       -12.6950
  36   0.0000      -0.332841        -9.0571
  37   0.0000      -0.235307        -6.4030
  38   0.0000      -0.219184        -5.9643
  39   0.0000      -0.143314        -3.8998
  40   0.0000      -0.114523        -3.1163

MULLIKEN ATOMIC CHARGES
-----------------------
   0 C :   -0.050575
   1 C :   -0.003065
   2 C :    0.143005
   3 C :    0.036395
   4 C :    0.056488
   5 C :    0.091247
   6 C :    0.074698
   7 H :    0.102910
   8 H :    0.084480
   9 H :    0.079871
  10 H :    0.058514
  11 H :    0.077246
  12 H :    0.078345
  13 H :    0.073436
  14 N :    0.211888
  15 O :   -0.141754
  16 O :   -0.141186
  17 H :    0.168056
Sum of atomic charges:    1.0000000

LOEWDIN ATOMIC CHARGES
----------------------
   0 C :   -0.008592
   1 C :    0.107812
   2 C :   -0.001101
   3 C :    0.120997
   4 C :    0.006875
   5 C :    0.166990
   6 C :   -0.031487
   7 H :    0.072371
   8 H :    0.066640
   9 H :    0.063138
  10 H :    0.052125
  11 H :    0.060578
  12 H :    0.069699
  13 H :    0.069466
  14 N :    0.279439
  15 O :   -0.117132
  16 O :   -0.116865
  17 H :    0.139048

  Mayer bond orders larger than 0.100000
B(  0-C ,  1-C ) :   1.5155 B(  0-C ,  5-C ) :   1.2634 B(  0-C ,  6-C ) :   1.0593
B(  1-C ,  2-C ) :   1.0421 B(  1-C ,  8-H ) :   0.9634 B(  2-C ,  3-C ) :   1.0563
B(  2-C , 14-N ) :   0.7180 B(  2-C , 17-H ) :   0.7919 B(  3-C ,  4-C ) :   1.5246
B(  3-C ,  7-H ) :   0.9611 B(  4-C ,  5-C ) :   1.2815 B(  4-C , 13-H ) :   0.9871
B(  5-C , 12-H ) :   0.9783 B(  6-C ,  9-H ) :   0.9421 B(  6-C , 10-H ) :   0.9568
B(  6-C , 11-H ) :   0.9484 B( 14-N , 15-O ) :   1.6029 B( 14-N , 16-O ) :   1.6055
B( 15-O , 16-O ) :   0.2956

Dispersion correction           -0.026945632
FINAL SINGLE POINT ENERGY      -475.753416986749

DIPOLE MOMENT
-------------
                                X             Y             Z
Electronic contribution:     -1.85829      -6.11281      -7.06518
Nuclear contribution   :      2.78907       6.53989       9.36710
                        -----------------------------------------
Total Dipole Moment    :      0.93078       0.42708       2.30191
                        -----------------------------------------
Magnitude (a.u.)       :      2.51944
Magnitude (Debye)      :      6.40390

Dispersion correction in the Hessian             ...

VIBRATIONAL FREQUENCIES
-----------------------

Scaling factor for frequencies =  1.000000000  (already applied!)

   0:         0.00 cm**-1
   1:         0.00 cm**-1
   2:         0.00 cm**-1
   3:         0.00 cm**-1
   4:         0.00 cm**-1
   5:         0.00 cm**-1
   6:        48.59 cm**-1
   7:        84.49 cm**-1
   8:       105.41 cm**-1
   9:       164.55 cm**-1
  10:       227.51 cm**-1
  11:       311.26 cm**-1
  12:       353.63 cm**-1
  13:       375.26 cm**-1
  14:       457.51 cm**-1
  15:       470.35 cm**-1
  16:       523.70 cm**-1
  17:       590.47 cm**-1
  18:       644.34 cm**-1
  19:       691.07 cm**-1
  20:       796.98 cm**-1
  21:       816.34 cm**-1
  22:       840.88 cm**-1
  23:       884.59 cm**-1
  24:       934.81 cm**-1
  25:       988.28 cm**-1
  26:      1008.06 cm**-1
  27:      1026.66 cm**-1
  28:      1040.65 cm**-1
  29:      1062.48 cm**-1
  30:      1065.79 cm**-1
  31:      1077.97 cm**-1
  32:      1119.32 cm**-1
  33:      1187.45 cm**-1
  34:      1216.46 cm**-1
  35:      1305.25 cm**-1
  36:      1367.25 cm**-1
  37:      1400.72 cm**-1
  38:      1402.98 cm**-1
  39:      1434.04 cm**-1
  40:      1450.53 cm**-1
  41:      1461.82 cm**-1
  42:      1502.06 cm**-1
  43:      1588.90 cm**-1
  44:      1645.03 cm**-1
  45:      1790.59 cm**-1
  46:      2918.35 cm**-1
  47:      3042.16 cm**-1
  48:      3117.24 cm**-1
  49:      3157.41 cm**-1
  50:      3181.29 cm**-1
  51:      3209.20 cm**-1
  52:      3212.79 cm**-1
  53:      3223.55 cm**-1

IR SPECTRUM
-----------

 Mode    freq (cm**-1)   T**2         TX         TY         TZ
-------------------------------------------------------------------
   6:        48.59    0.176425  (  0.158907   0.381885  -0.073059)
   7:        84.49    2.255222  ( -0.441845  -0.815923  -1.180790)
   8:       105.41    5.167348  ( -1.616890  -1.184212  -1.072687)
   9:       164.55    2.762048  (  1.198072  -1.138268   0.176122)
  10:       227.51    0.911730  (  0.445150  -0.637141   0.554637)
  11:       311.26    9.649301  ( -0.558618  -0.932400  -2.909962)
  12:       353.63    4.943222  (  0.918825  -0.164538   2.017897)
  13:       375.26    4.273655  (  1.061534   0.030055   1.773668)
  14:       457.51   10.255728  ( -1.999177  -2.500407   0.083562)
  15:       470.35    2.493911  (  1.016012  -1.090046  -0.522907)
  16:       523.70    1.398115  (  0.642385  -0.529059  -0.839972)
  17:       590.47    8.281215  ( -1.013534  -1.013154  -2.495493)
  18:       644.34    2.507340  (  0.803834  -0.612919   1.218820)
  19:       691.07   59.119520  ( -2.028993  -1.373135   7.288155)
  20:       796.98    7.288393  ( -0.069108   2.467441   1.093321)
  21:       816.34   28.715054  ( -0.969539  -0.694706  -5.224216)
  22:       840.88  259.952201  ( -6.909203  -4.069411 -13.987674)
  23:       884.59    7.718977  (  0.935937  -0.030601  -2.615734)
  24:       934.81   26.187371  ( -2.314386  -2.382764  -3.892740)
  25:       988.28    1.357092  (  1.155207   0.036114  -0.145894)
  26:      1008.06    9.286811  ( -1.787207   2.240815   1.035110)
  27:      1026.66   27.007129  ( -1.545984  -1.708576  -4.658093)
  28:      1040.65    8.529448  (  2.882395   0.401141   0.245625)
  29:      1062.48    9.158105  ( -0.175789  -2.869199  -0.945991)
  30:      1065.79   44.256386  ( -2.570763  -1.130851  -6.030650)
  31:      1077.97   49.707122  (  3.518128   2.050437   5.755485)
  32:      1119.32    7.347494  ( -1.943000   1.886136  -0.121400)
  33:      1187.45   13.785517  (  1.468703   2.158094   2.640276)
  34:      1216.46   16.467143  (  2.587451   0.151313   3.122394)
  35:      1305.25    4.972544  ( -0.023137   1.971003   1.042667)
  36:      1367.25   15.479463  (  1.966794  -2.711794  -2.063337)
  37:      1400.72    6.837207  (  1.030573  -1.404953   1.949676)
  38:      1402.98  176.390187  (  4.552583   3.534151  11.965532)
  39:      1434.04   44.190499  (  3.570821   0.104729   5.606137)
  40:      1450.53   15.080528  (  3.138757   1.602136  -1.631532)
  41:      1461.82   86.073960  (  4.861202   2.341365   7.547230)
  42:      1502.06  130.367988  ( -5.745587   9.749120   1.520155)
  43:      1588.90   46.272105  ( -0.833584   6.306500   2.409419)
  44:      1645.03   46.374984  (  5.765657   1.217310   3.413260)
  45:      1790.59  245.395832  ( -8.640736  13.058208   0.465544)
  46:      2918.35   69.510953  ( -6.480730  -4.729286   2.268248)
  47:      3042.16    0.765522  (  0.400752   0.483042   0.609582)
  48:      3117.24    0.142321  (  0.165757  -0.239488  -0.239772)
  49:      3157.41    0.907857  (  0.203896  -0.851025  -0.376881)
  50:      3181.29    2.597644  (  1.103772   0.529772   1.048176)
  51:      3209.20   19.956265  (  3.646245  -1.721722   1.922716)
  52:      3212.79   13.905073  ( -1.369089  -2.552128  -2.348895)
  53:      3223.55   21.900876  ( -2.104080   4.073474   0.938366)

--------------------------
THERMOCHEMISTRY AT 298.15K
--------------------------

Temperature         ... 298.15 K
Pressure            ... 1.00 atm
Total Mass          ... 138.15 AMU

Throughout the following assumptions are being made:
  (1) The electronic state is orbitally nondegenerate
  (2) There are no thermally accessible electronically excited states
  (3) Hindered rotations indicated by low frequency modes are not
      treated as such but are treated as vibrations and this may
      cause some error
  (4) All equations used are the standard statistical mechanics
      equations for an ideal gas
  (5) All vibrations are strictly harmonic

freq.      48.59  E(vib)   ...       0.53
freq.      84.49  E(vib)   ...       0.48
freq.     105.41  E(vib)   ...       0.45
freq.     164.55  E(vib)   ...       0.39
freq.     227.51  E(vib)   ...       0.33
freq.     311.26  E(vib)   ...       0.25
freq.     353.63  E(vib)   ...       0.22
freq.     375.26  E(vib)   ...       0.21
freq.     457.51  E(vib)   ...       0.16
freq.     470.35  E(vib)   ...       0.15
freq.     523.70  E(vib)   ...       0.13
freq.     590.47  E(vib)   ...       0.10
freq.     644.34  E(vib)   ...       0.09
freq.     691.07  E(vib)   ...       0.07
freq.     796.98  E(vib)   ...       0.05
freq.     816.34  E(vib)   ...       0.05
freq.     840.88  E(vib)   ...       0.04
freq.     884.59  E(vib)   ...       0.04
freq.     934.81  E(vib)   ...       0.03
freq.     988.28  E(vib)   ...       0.02
freq.    1008.06  E(vib)   ...       0.02
freq.    1026.66  E(vib)   ...       0.02
freq.    1040.65  E(vib)   ...       0.02
freq.    1062.48  E(vib)   ...       0.02
freq.    1065.79  E(vib)   ...       0.02
freq.    1077.97  E(vib)   ...       0.02
freq.    1119.32  E(vib)   ...       0.01
freq.    1187.45  E(vib)   ...       0.01
freq.    1216.46  E(vib)   ...       0.01
freq.    1305.25  E(vib)   ...       0.01
freq.    1367.25  E(vib)   ...       0.01
freq.    1400.72  E(vib)   ...       0.00
freq.    1402.98  E(vib)   ...       0.00
freq.    1434.04  E(vib)   ...       0.00
freq.    1450.53  E(vib)   ...       0.00
freq.    1461.82  E(vib)   ...       0.00
freq.    1502.06  E(vib)   ...       0.00
freq.    1588.90  E(vib)   ...       0.00
freq.    1645.03  E(vib)   ...       0.00
freq.    1790.59  E(vib)   ...       0.00
freq.    2918.35  E(vib)   ...       0.00
freq.    3042.16  E(vib)   ...       0.00
freq.    3117.24  E(vib)   ...       0.00
freq.    3157.41  E(vib)   ...       0.00
freq.    3181.29  E(vib)   ...       0.00
freq.    3209.20  E(vib)   ...       0.00
freq.    3212.79  E(vib)   ...       0.00
freq.    3223.55  E(vib)   ...       0.00

------------
INNER ENERGY
------------

The inner energy is: U= E(el) + E(ZPE) + E(vib) + E(rot) + E(trans)
    E(el)   - is the total energy from the electronic structure calculation
              = E(kin-el) + E(nuc-el) + E(el-el) + E(nuc-nuc)
    E(ZPE)  - the the zero temperature vibrational energy from the frequency calculation
    E(vib)  - the the finite temperature correction to E(ZPE) due to population
              of excited vibrational states
    E(rot)  - is the rotational thermal energy
    E(trans)- is the translational thermal energy

Summary of contributions to the inner energy U:
Electronic energy                ...   -475.75341699 Eh
Zero point energy                ...      0.14016650 Eh      87.96 kcal/mol
Thermal vibrational correction   ...      0.00636251 Eh       3.99 kcal/mol
Thermal rotational correction    ...      0.00141627 Eh       0.89 kcal/mol
Thermal translational correction ...      0.00141627 Eh       0.89 kcal/mol
-----------------------------------------------------------------------
Total thermal energy                   -475.60405543 Eh

Summary of corrections to the electronic energy:
(perhaps to be used in another calculation)
Total thermal correction                  0.00919506 Eh       5.77 kcal/mol
Non-thermal (ZPE) correction              0.14016650 Eh      87.96 kcal/mol
-----------------------------------------------------------------------
Total correction                          0.14936155 Eh      93.73 kcal/mol

--------
ENTHALPY
--------

The enthalpy is H = U + kB*T
                kB is Boltzmann's constant
Total free energy                 ...   -475.60405543 Eh
Thermal Enthalpy correction       ...      0.00094421 Eh       0.59 kcal/mol
-----------------------------------------------------------------------
Total Enthalpy                    ...   -475.60311122 Eh

Note: Only C1 symmetry has been detected, increase convergence thresholds
      if your molecule has a higher symmetry. Symmetry factor of 1.0 is
      used for the rotational entropy correction.

Note: Rotational entropy computed according to Herzberg
Infrared and Raman Spectra, Chapter V,1, Van Nostrand Reinhold, 1945
Point Group:  C1, Symmetry Number:   1
Rotational constants in cm-1:     0.082848     0.032652     0.024181

Vibrational entropy computed according to the QRRHO of S. Grimme
Chem.Eur.J. 2012 18 9955

-------
ENTROPY
-------

The entropy contributions are T*S = T*(S(el)+S(vib)+S(rot)+S(trans))
     S(el)   - electronic entropy
     S(vib)  - vibrational entropy
     S(rot)  - rotational entropy
     S(trans)- translational entropy
The entropies will be listed as mutliplied by the temperature to get
units of energy

Electronic entropy                ...      0.00000000 Eh      0.00 kcal/mol
Vibrational entropy               ...      0.01091620 Eh      6.85 kcal/mol
Rotational entropy                ...      0.01405930 Eh      8.82 kcal/mol
Translational entropy             ...      0.01932890 Eh     12.13 kcal/mol
-----------------------------------------------------------------------
Final entropy term                ...      0.04430440 Eh     27.80 kcal/mol

In case the symmetry of your molecule has not been determined correctly
or in case you have a reason to use a different symmetry number we print
out the resulting rotational entropy values for sn=1,12 :
 --------------------------------------------------------
|  sn= 1 | S(rot)=       0.01405930 Eh      8.82 kcal/mol|
|  sn= 2 | S(rot)=       0.01340485 Eh      8.41 kcal/mol|
|  sn= 3 | S(rot)=       0.01302201 Eh      8.17 kcal/mol|
|  sn= 4 | S(rot)=       0.01275039 Eh      8.00 kcal/mol|
|  sn= 5 | S(rot)=       0.01253970 Eh      7.87 kcal/mol|
|  sn= 6 | S(rot)=       0.01236756 Eh      7.76 kcal/mol|
|  sn= 7 | S(rot)=       0.01222201 Eh      7.67 kcal/mol|
|  sn= 8 | S(rot)=       0.01209593 Eh      7.59 kcal/mol|
|  sn= 9 | S(rot)=       0.01198473 Eh      7.52 kcal/mol|
|  sn=10 | S(rot)=       0.01188525 Eh      7.46 kcal/mol|
|  sn=11 | S(rot)=       0.01179526 Eh      7.40 kcal/mol|
|  sn=12 | S(rot)=       0.01171310 Eh      7.35 kcal/mol|
 --------------------------------------------------------

                             ****ORCA TERMINATED NORMALLY****
TOTAL RUN TIME: 0 days 2 hours 51 minutes 15 seconds 148 msec
