                         Program Version 5.0.4 -  RELEASE  -
|  1> !B3LYP DEF2-SVP OPT D4
|  2>
|  3> * xyz 1 1
|  4>    H        0.93448       -2.33974        0.00192
|  5>    C        0.51939       -1.33490       -0.01023
|  6>    C       -0.80195       -1.12171        0.37987
|  7>    H       -1.41746       -1.96034        0.69623
|  8>    C       -1.33415        0.16675        0.36384
|  9>    H       -2.36493        0.33286        0.66746
| 10>    C       -0.54464        1.24208       -0.04139
| 11>    H       -0.95997        2.24687       -0.05361
| 12>    C        0.77696        1.02892       -0.43123
| 13>    H        1.39277        1.86746       -0.74725
| 14>    C        1.30846       -0.25984       -0.41646
| 15>    H        2.33795       -0.42732       -0.72230
| 16>    N        5.25622        1.09520       -1.10837
| 17>    O        6.42862        1.38835       -1.08164
| 18>    O        4.74995        0.88664       -0.03026
| 19> **                         ****END OF INPUT****
 Total Charge           Charge          ....    1
 Multiplicity           Mult            ....    1
 Number of Electrons    NEL             ....   64
 Basis Dimension        Dim             ....  156

ORBITAL ENERGIES
----------------

  NO   OCC          E(Eh)            E(eV)
   0   2.0000     -19.419334      -528.4269
   1   2.0000     -19.417519      -528.3776
   2   2.0000     -14.749142      -401.3446
   3   2.0000     -10.403427      -283.0916
   4   2.0000     -10.399994      -282.9982
   5   2.0000     -10.393069      -282.8098
   6   2.0000     -10.389513      -282.7130
   7   2.0000     -10.374684      -282.3095
   8   2.0000     -10.374226      -282.2970
   9   2.0000      -1.453163       -39.5426
  10   2.0000      -1.262786       -34.3621
  11   2.0000      -1.047431       -28.5020
  12   2.0000      -0.939724       -25.5712
  13   2.0000      -0.928045       -25.2534
  14   2.0000      -0.824708       -22.4414
  15   2.0000      -0.789448       -21.4820
  16   2.0000      -0.788224       -21.4487
  17   2.0000      -0.735350       -20.0099
  18   2.0000      -0.730414       -19.8756
  19   2.0000      -0.721069       -19.6213
  20   2.0000      -0.709829       -19.3154
  21   2.0000      -0.646583       -17.5944
  22   2.0000      -0.638514       -17.3749
  23   2.0000      -0.615908       -16.7597
  24   2.0000      -0.604150       -16.4398
  25   2.0000      -0.559752       -15.2316
  26   2.0000      -0.537054       -14.6140
  27   2.0000      -0.534441       -14.5429
  28   2.0000      -0.532553       -14.4915
  29   2.0000      -0.509897       -13.8750
  30   2.0000      -0.442815       -12.0496
  31   2.0000      -0.442583       -12.0433
  32   0.0000      -0.421766       -11.4768
  33   0.0000      -0.266489        -7.2515
  34   0.0000      -0.199220        -5.4211
  35   0.0000      -0.191196        -5.2027
  36   0.0000      -0.095482        -2.5982

MULLIKEN ATOMIC CHARGES
-----------------------
   0 H :    0.051440
   1 C :    0.039411
   2 C :    0.069864
   3 H :    0.063403
   4 C :    0.093766
   5 H :    0.068721
   6 C :    0.037188
   7 H :    0.053793
   8 C :    0.072916
   9 H :    0.045641
  10 C :    0.093021
  11 H :    0.032699
  12 N :    0.362979
  13 O :   -0.019067
  14 O :   -0.065774
Sum of atomic charges:    1.0000000

LOEWDIN ATOMIC CHARGES
----------------------
   0 H :    0.057041
   1 C :    0.008386
   2 C :    0.075118
   3 H :    0.061747
   4 C :    0.116865
   5 H :    0.063905
   6 C :    0.008537
   7 H :    0.057877
   8 C :    0.069462
   9 H :    0.053999
  10 C :    0.105366
  11 H :    0.046287
  12 N :    0.258112
  13 O :    0.030964
  14 O :   -0.013665

  Mayer bond orders larger than 0.100000
B(  0-H ,  1-C ) :   0.9890 B(  1-C ,  2-C ) :   1.4423 B(  1-C , 10-C ) :   1.3324
B(  2-C ,  3-H ) :   0.9881 B(  2-C ,  4-C ) :   1.1768 B(  4-C ,  5-H ) :   0.9875
B(  4-C ,  6-C ) :   1.3391 B(  6-C ,  7-H ) :   0.9888 B(  6-C ,  8-C ) :   1.4379
B(  8-C ,  9-H ) :   0.9881 B(  8-C , 10-C ) :   1.1683 B( 10-C , 11-H ) :   0.9840
B( 10-C , 12-N ) :   0.1035 B( 12-N , 13-O ) :   1.6755 B( 12-N , 14-O ) :   1.6194
B( 13-O , 14-O ) :   0.3279

Dispersion correction           -0.017816748
FINAL SINGLE POINT ENERGY      -436.388673149348
Dispersion correction            ... Starting D4
Dispersion correction           -0.017736896
FINAL SINGLE POINT ENERGY      -436.425912138171
Dispersion correction            ... Starting D4
Dispersion correction           -0.017717928
FINAL SINGLE POINT ENERGY      -436.438562926258
Dispersion correction            ... Starting D4
FINAL SINGLE POINT ENERGY      -436.441305075936
FINAL SINGLE POINT ENERGY      -436.441974291329
FINAL SINGLE POINT ENERGY      -436.442103826997
FINAL SINGLE POINT ENERGY      -436.442149414011
FINAL SINGLE POINT ENERGY      -436.442247871807
FINAL SINGLE POINT ENERGY      -436.442490923482
FINAL SINGLE POINT ENERGY      -436.439161577476
FINAL SINGLE POINT ENERGY      -436.451167315937
FINAL SINGLE POINT ENERGY      -436.451532529694
FINAL SINGLE POINT ENERGY      -436.451912652081
FINAL SINGLE POINT ENERGY      -436.452213692323
FINAL SINGLE POINT ENERGY      -436.452614834457
FINAL SINGLE POINT ENERGY      -436.453355182174
FINAL SINGLE POINT ENERGY      -436.454209414906
Dispersion correction           -0.021485580
FINAL SINGLE POINT ENERGY      -436.455062875544
Dispersion correction            ... Starting D4
Dispersion correction           -0.021583463
FINAL SINGLE POINT ENERGY      -436.455942799661
Dispersion correction            ... Starting D4

CARTESIAN COORDINATES (ANGSTROEM)
---------------------------------
  H      1.156926   -2.326380   -0.702912
  C      0.814752   -1.305394   -0.514687
  C      0.242992   -0.913597    0.697501
  H      0.080075   -1.618823    1.515206
  C     -0.130236    0.420550    0.871724
  H     -0.561898    0.760314    1.816491
  C      0.016347    1.366122   -0.166475
  H     -0.326355    2.381267    0.049595
  C      0.569242    0.978929   -1.389618
  H      0.701176    1.672858   -2.230293
  C      0.984868   -0.359194   -1.558375
  H      1.512988   -0.654201   -2.455735
  N      3.750673    0.741839    0.496486
  O      4.818923    1.052560    0.761734
  O      2.651229    0.614429    0.275938

Dispersion correction           -0.021662751
FINAL SINGLE POINT ENERGY      -436.456902334634
Dispersion correction            ... Starting D4

DIPOLE MOMENT
-------------
                                X             Y             Z
Electronic contribution:      8.68215       1.59847       2.88746
Nuclear contribution   :     -6.83538      -1.54456      -1.79887
                        -----------------------------------------
Total Dipole Moment    :      1.84677       0.05391       1.08860
                        -----------------------------------------
Magnitude (a.u.)       :      2.14441
Magnitude (Debye)      :      5.45067

Rotational constants in cm-1:     0.094435     0.034539     0.034452
Rotational constants in MHz :  2831.099024  1035.465686  1032.848363

                             ****ORCA TERMINATED NORMALLY****
TOTAL RUN TIME: 0 days 1 hours 43 minutes 26 seconds 142 msec
