                         Program Version 5.0.4 -  RELEASE  -
|  1> !B3LYP DEF2-SVP D4 OPT FREQ SOSCF
|  2>
|  3> %Base "first_job"
|  4>
|  5> * xyz 0 1
|  6>    C       -2.59009       -1.69192        0.01756
|  7>    C       -3.78642       -0.74430       -0.02159
|  8>    C       -5.10813       -1.52043        0.01028
|  9>    H       -3.73373       -0.13639       -0.95127
| 10>    H       -3.73389       -0.06195        0.85491
| 11>    C       -6.30668       -0.56547       -0.02921
| 12>    H       -5.15419       -2.12889        0.94056
| 13>    H       -5.15401       -2.20339       -0.86678
| 14>    C       -7.62470       -1.33380        0.00231
| 15>    H       -6.26884        0.04361       -0.95872
| 16>    H       -6.26903        0.11803        0.84704
| 17>    H       -7.69868       -2.00988       -0.87606
| 18>    H       -8.47344       -0.61843       -0.02727
| 19>    H       -7.69889       -1.93530        0.93333
| 20>    F       -1.41674       -0.96085       -0.01247
| 21>    H       -2.61093       -2.37313       -0.85973
| 22>    H       -2.61108       -2.29862        0.94793
| 23> *
| 24>
| 25> $new_job
| 26>
| 27> !B3LYP DEF2-QZVP
| 28>
| 29> %base "second_job"
| 30>
| 31> %scf
| 32> convergence tight
| 33> end
| 34>
| 35> * XYZfile 0 1 first_job.xyz
| 36>
| 37>                          ****END OF INPUT****
 Total Charge           Charge          ....    0
 Multiplicity           Mult            ....    1
 Number of Electrons    NEL             ....   50
Dispersion correction           -0.016881395
FINAL SINGLE POINT ENERGY      -296.613266825718
Dispersion correction            ... Starting D4
Dispersion correction           -0.016776232
FINAL SINGLE POINT ENERGY      -296.614873186349
Dispersion correction            ... Starting D4
Dispersion correction           -0.016761942
FINAL SINGLE POINT ENERGY      -296.615110572349
Dispersion correction            ... Starting D4
FINAL SINGLE POINT ENERGY      -296.615176994625
Dispersion correction            ... Starting D4
Dispersion correction           -0.016769840
FINAL SINGLE POINT ENERGY      -296.615181474270
Dispersion correction            ... Starting D4
                    ***********************HURRAY********************
Dispersion correction           -0.016770649
FINAL SINGLE POINT ENERGY      -296.615181986475
Dispersion correction in the Hessian             ... Starting D4

VIBRATIONAL FREQUENCIES
-----------------------

Scaling factor for frequencies =  1.000000000  (already applied!)

   0:         0.00 cm**-1
   1:         0.00 cm**-1
   2:         0.00 cm**-1
   3:         0.00 cm**-1
   4:         0.00 cm**-1
   5:         0.00 cm**-1
   6:        81.07 cm**-1
   7:       105.22 cm**-1
   8:       134.53 cm**-1
   9:       160.53 cm**-1
  10:       253.02 cm**-1
  11:       315.06 cm**-1
  12:       360.83 cm**-1
  13:       499.45 cm**-1
  14:       743.42 cm**-1
  15:       778.02 cm**-1
  16:       856.64 cm**-1
  17:       903.43 cm**-1
  18:       983.01 cm**-1
  19:      1029.72 cm**-1
  20:      1055.12 cm**-1
  21:      1074.48 cm**-1
  22:      1091.40 cm**-1
  23:      1140.60 cm**-1
  24:      1189.97 cm**-1
  25:      1232.74 cm**-1
  26:      1258.98 cm**-1
  27:      1292.07 cm**-1
  28:      1306.84 cm**-1
  29:      1324.12 cm**-1
  30:      1344.39 cm**-1
  31:      1399.16 cm**-1
  32:      1407.13 cm**-1
  33:      1435.91 cm**-1
  34:      1461.79 cm**-1
  35:      1466.70 cm**-1
  36:      1470.49 cm**-1
  37:      1476.69 cm**-1
  38:      1485.16 cm**-1
  39:      1500.92 cm**-1
  40:      2999.23 cm**-1
  41:      3010.13 cm**-1
  42:      3014.09 cm**-1
  43:      3019.85 cm**-1
  44:      3027.68 cm**-1
  45:      3032.16 cm**-1
  46:      3051.78 cm**-1
  47:      3056.83 cm**-1
  48:      3082.34 cm**-1
  49:      3096.56 cm**-1
  50:      3105.03 cm**-1

IR SPECTRUM
-----------

 Mode   freq       eps      Int      T**2         TX        TY        TZ
       cm**-1   L/(mol*cm) km/mol    a.u.
----------------------------------------------------------------------------
  6:     81.07   0.000380    1.92  0.001462  (-0.000260  0.001361  0.038214)
  7:    105.22   0.000056    0.28  0.000165  ( 0.000065  0.000128  0.012839)
  8:    134.53   0.000271    1.37  0.000628  (-0.012350  0.021792 -0.000650)
  9:    160.53   0.000237    1.20  0.000462  ( 0.000261 -0.000815 -0.021469)
 10:    253.02   0.000000    0.00  0.000000  ( 0.000134 -0.000160 -0.000578)
 11:    315.06   0.000608    3.07  0.000602  ( 0.019168 -0.015302  0.000634)
 12:    360.83   0.000181    0.91  0.000156  (-0.003304 -0.012054  0.000417)
 13:    499.45   0.001200    6.06  0.000750  ( 0.026172 -0.008039  0.000396)
 14:    743.42   0.000725    3.66  0.000304  ( 0.000041 -0.000729 -0.017426)
 15:    778.02   0.000001    0.00  0.000000  (-0.000210 -0.000074 -0.000493)
 16:    856.64   0.000013    0.06  0.000005  ( 0.000003 -0.000059 -0.002140)
 17:    903.43   0.000567    2.87  0.000196  ( 0.013914 -0.001519  0.000117)
 18:    983.01   0.000198    1.00  0.000063  (-0.000015 -0.000364 -0.007918)
 19:   1029.72   0.000394    1.99  0.000119  (-0.005950  0.009162 -0.000333)
 20:   1055.12   0.003651   18.45  0.001080  ( 0.017067  0.028068 -0.000907)
 21:   1074.48   0.001494    7.55  0.000434  (-0.019371 -0.007652  0.000139)
 22:   1091.40   0.017456   88.21  0.004991  (-0.067900 -0.019510  0.000315)
 23:   1140.60   0.000779    3.94  0.000213  (-0.010910 -0.009704  0.000215)
 24:   1189.97   0.000197    1.00  0.000052  (-0.000010 -0.000315 -0.007184)
 25:   1232.74   0.000250    1.26  0.000063  ( 0.000040 -0.000364 -0.007943)
 26:   1258.98   0.000346    1.75  0.000086  ( 0.005082 -0.007737  0.000354)
 27:   1292.07   0.000014    0.07  0.000003  (-0.000147  0.000100  0.001841)
 28:   1306.84   0.000069    0.35  0.000016  ( 0.000172  0.000149  0.004045)
 29:   1324.12   0.000090    0.46  0.000021  ( 0.000028  0.000201  0.004604)
 30:   1344.39   0.000149    0.75  0.000035  ( 0.005722  0.001335 -0.000126)
 31:   1399.16   0.000138    0.70  0.000031  (-0.004102  0.003724 -0.000216)
 32:   1407.13   0.000763    3.85  0.000169  (-0.012653 -0.003006  0.000128)
 33:   1435.91   0.004713   23.82  0.001024  ( 0.031171  0.007258 -0.000097)
 34:   1461.79   0.000096    0.48  0.000020  (-0.004064  0.001964 -0.000144)
 35:   1466.70   0.000240    1.21  0.000051  (-0.006849  0.002016 -0.000330)
 36:   1470.49   0.001261    6.37  0.000268  (-0.000072  0.000694  0.016343)
 37:   1476.69   0.000035    0.17  0.000007  (-0.001412 -0.002302 -0.000010)
 38:   1485.16   0.000739    3.74  0.000155  ( 0.003891 -0.011833  0.000417)
 39:   1500.92   0.000367    1.86  0.000076  ( 0.008128 -0.003198  0.000215)
 40:   2999.23   0.000767    3.88  0.000080  ( 0.000356 -0.008915  0.000417)
 41:   3010.13   0.007203   36.40  0.000747  ( 0.002431 -0.027202  0.000917)
 42:   3014.09   0.005100   25.77  0.000528  (-0.001331 -0.022919  0.000980)
 43:   3019.85   0.006278   31.73  0.000649  ( 0.019708  0.016118 -0.000779)
 44:   3027.68   0.011264   56.92  0.001161  (-0.005660 -0.033574  0.001304)
 45:   3032.16   0.000525    2.65  0.000054  ( 0.000035 -0.000047 -0.007351)
 46:   3051.78   0.004781   24.16  0.000489  ( 0.000171 -0.000601 -0.022103)
 47:   3056.83   0.000474    2.40  0.000048  (-0.000119 -0.000478 -0.006939)
 48:   3082.34   0.013345   67.44  0.001351  ( 0.000147 -0.001479 -0.036727)
 49:   3096.56   0.011046   55.82  0.001113  ( 0.000354  0.001131  0.033344)
 50:   3105.03   0.006000   30.32  0.000603  (-0.013784  0.020320 -0.000387)

--------------------------
THERMOCHEMISTRY AT 298.15K
--------------------------

Temperature         ... 298.15 K
Pressure            ... 1.00 atm
Total Mass          ... 90.14 AMU

Throughout the following assumptions are being made:
  (1) The electronic state is orbitally nondegenerate
  (2) There are no thermally accessible electronically excited states
  (3) Hindered rotations indicated by low frequency modes are not
      treated as such but are treated as vibrations and this may
      cause some error
  (4) All equations used are the standard statistical mechanics
      equations for an ideal gas
  (5) All vibrations are strictly harmonic

freq.      81.07  E(vib)   ...       0.48
freq.     105.22  E(vib)   ...       0.45
freq.     134.53  E(vib)   ...       0.42
freq.     160.53  E(vib)   ...       0.39
freq.     253.02  E(vib)   ...       0.30
freq.     315.06  E(vib)   ...       0.25
freq.     360.83  E(vib)   ...       0.22
freq.     499.45  E(vib)   ...       0.14
freq.     743.42  E(vib)   ...       0.06
freq.     778.02  E(vib)   ...       0.05
freq.     856.64  E(vib)   ...       0.04
freq.     903.43  E(vib)   ...       0.03
freq.     983.01  E(vib)   ...       0.02
freq.    1029.72  E(vib)   ...       0.02
freq.    1055.12  E(vib)   ...       0.02
freq.    1074.48  E(vib)   ...       0.02
freq.    1091.40  E(vib)   ...       0.02
freq.    1140.60  E(vib)   ...       0.01
freq.    1189.97  E(vib)   ...       0.01
freq.    1232.74  E(vib)   ...       0.01
freq.    1258.98  E(vib)   ...       0.01
freq.    1292.07  E(vib)   ...       0.01
freq.    1306.84  E(vib)   ...       0.01
freq.    1324.12  E(vib)   ...       0.01
freq.    1344.39  E(vib)   ...       0.01
freq.    1399.16  E(vib)   ...       0.00
freq.    1407.13  E(vib)   ...       0.00
freq.    1435.91  E(vib)   ...       0.00
freq.    1461.79  E(vib)   ...       0.00
freq.    1466.70  E(vib)   ...       0.00
freq.    1470.49  E(vib)   ...       0.00
freq.    1476.69  E(vib)   ...       0.00
freq.    1485.16  E(vib)   ...       0.00
freq.    1500.92  E(vib)   ...       0.00
freq.    2999.23  E(vib)   ...       0.00
freq.    3010.13  E(vib)   ...       0.00
freq.    3014.09  E(vib)   ...       0.00
freq.    3019.85  E(vib)   ...       0.00
freq.    3027.68  E(vib)   ...       0.00
freq.    3032.16  E(vib)   ...       0.00
freq.    3051.78  E(vib)   ...       0.00
freq.    3056.83  E(vib)   ...       0.00
freq.    3082.34  E(vib)   ...       0.00
freq.    3096.56  E(vib)   ...       0.00
freq.    3105.03  E(vib)   ...       0.00

------------
INNER ENERGY
------------

The inner energy is: U= E(el) + E(ZPE) + E(vib) + E(rot) + E(trans)
    E(el)   - is the total energy from the electronic structure calculation
              = E(kin-el) + E(nuc-el) + E(el-el) + E(nuc-nuc)
    E(ZPE)  - the the zero temperature vibrational energy from the frequency calculation
    E(vib)  - the the finite temperature correction to E(ZPE) due to population
              of excited vibrational states
    E(rot)  - is the rotational thermal energy
    E(trans)- is the translational thermal energy

Summary of contributions to the inner energy U:
Electronic energy                ...   -296.61518199 Eh
Zero point energy                ...      0.15289757 Eh      95.94 kcal/mol
Thermal vibrational correction   ...      0.00486582 Eh       3.05 kcal/mol
Thermal rotational correction    ...      0.00141627 Eh       0.89 kcal/mol
Thermal translational correction ...      0.00141627 Eh       0.89 kcal/mol
-----------------------------------------------------------------------
Total thermal energy                   -296.45458605 Eh

Summary of corrections to the electronic energy:
(perhaps to be used in another calculation)
Total thermal correction                  0.00769836 Eh       4.83 kcal/mol
Non-thermal (ZPE) correction              0.15289757 Eh      95.94 kcal/mol
-----------------------------------------------------------------------
Total correction                          0.16059593 Eh     100.78 kcal/mol

--------
ENTHALPY
--------

The enthalpy is H = U + kB*T
                kB is Boltzmann's constant
Total free energy                 ...   -296.45458605 Eh
Thermal Enthalpy correction       ...      0.00094421 Eh       0.59 kcal/mol
-----------------------------------------------------------------------
Total Enthalpy                    ...   -296.45364184 Eh

Note: Only C1 symmetry has been detected, increase convergence thresholds
      if your molecule has a higher symmetry. Symmetry factor of 1.0 is
      used for the rotational entropy correction.

Note: Rotational entropy computed according to Herzberg
Infrared and Raman Spectra, Chapter V,1, Van Nostrand Reinhold, 1945
Point Group:  C1, Symmetry Number:   1
Rotational constants in cm-1:     0.533600     0.036863     0.035635

Vibrational entropy computed according to the QRRHO of S. Grimme
Chem.Eur.J. 2012 18 9955

-------
ENTROPY
-------

The entropy contributions are T*S = T*(S(el)+S(vib)+S(rot)+S(trans))
     S(el)   - electronic entropy
     S(vib)  - vibrational entropy
     S(rot)  - rotational entropy
     S(trans)- translational entropy
The entropies will be listed as multiplied by the temperature to get
units of energy

Electronic entropy                ...      0.00000000 Eh      0.00 kcal/mol
Vibrational entropy               ...      0.00862555 Eh      5.41 kcal/mol
Rotational entropy                ...      0.01293965 Eh      8.12 kcal/mol
Translational entropy             ...      0.01872424 Eh     11.75 kcal/mol
-----------------------------------------------------------------------
Final entropy term                ...      0.04028944 Eh     25.28 kcal/mol

In case the symmetry of your molecule has not been determined correctly
or in case you have a reason to use a different symmetry number we print
out the resulting rotational entropy values for sn=1,12 :
 --------------------------------------------------------
|  sn= 1 | S(rot)=       0.01293965 Eh      8.12 kcal/mol|
|  sn= 2 | S(rot)=       0.01228519 Eh      7.71 kcal/mol|
|  sn= 3 | S(rot)=       0.01190236 Eh      7.47 kcal/mol|
|  sn= 4 | S(rot)=       0.01163074 Eh      7.30 kcal/mol|
|  sn= 5 | S(rot)=       0.01142005 Eh      7.17 kcal/mol|
|  sn= 6 | S(rot)=       0.01124790 Eh      7.06 kcal/mol|
|  sn= 7 | S(rot)=       0.01110236 Eh      6.97 kcal/mol|
|  sn= 8 | S(rot)=       0.01097628 Eh      6.89 kcal/mol|
|  sn= 9 | S(rot)=       0.01086507 Eh      6.82 kcal/mol|
|  sn=10 | S(rot)=       0.01076559 Eh      6.76 kcal/mol|
|  sn=11 | S(rot)=       0.01067560 Eh      6.70 kcal/mol|
|  sn=12 | S(rot)=       0.01059345 Eh      6.65 kcal/mol|
 --------------------------------------------------------

-------------------
GIBBS FREE ENERGY
-------------------

CARTESIAN COORDINATES (ANGSTROEM)
---------------------------------
  C     -2.571967   -1.685797    0.017611
  C     -3.769948   -0.755556   -0.022240
  C     -5.103936   -1.503593    0.006961
  H     -3.702389   -0.133827   -0.932518
  H     -3.704697   -0.062443    0.835053
  C     -6.322535   -0.577890   -0.031131
  H     -5.154999   -2.132998    0.915526
  H     -5.154000   -2.205179   -0.847161
  C     -7.654226   -1.326931    0.004880
  H     -6.272554    0.048310   -0.940579
  H     -6.268822    0.125293    0.819982
  H     -7.752082   -2.012124   -0.854281
  H     -8.509769   -0.633183   -0.023791
  H     -7.748042   -1.933307    0.921851
  F     -1.394186   -0.959357    0.000086
  H     -2.571980   -2.367483   -0.853193
  H     -2.583340   -2.305045    0.933765

 Multiplicity           Mult            ....    1
 Number of Electrons    NEL             ....   50
 Basis Dimension        Dim             ....  672

ORBITAL ENERGIES
----------------

  NO   OCC          E(Eh)            E(eV)
   0   2.0000     -24.658254      -670.9852
   1   2.0000     -10.245167      -278.7852
   2   2.0000     -10.177825      -276.9527
   3   2.0000     -10.175945      -276.9015
   4   2.0000     -10.174779      -276.8698
   5   2.0000     -10.166091      -276.6334
   6   2.0000      -1.188512       -32.3410
   7   2.0000      -0.810263       -22.0484
   8   2.0000      -0.756083       -20.5741
   9   2.0000      -0.678689       -18.4681
  10   2.0000      -0.610033       -16.5998
  11   2.0000      -0.584327       -15.9003
  12   2.0000      -0.502812       -13.6822
  13   2.0000      -0.493692       -13.4340
  14   2.0000      -0.465172       -12.6580
  15   2.0000      -0.458250       -12.4696
  16   2.0000      -0.426039       -11.5931
  17   2.0000      -0.412457       -11.2235
  18   2.0000      -0.388703       -10.5771
  19   2.0000      -0.361130        -9.8268
  20   2.0000      -0.359408        -9.7800
  21   2.0000      -0.341331        -9.2881
  22   2.0000      -0.331470        -9.0198
  23   2.0000      -0.328262        -8.9325
  24   2.0000      -0.321408        -8.7460
  25   0.0000       0.017162         0.4670
  26   0.0000       0.030919         0.8413
  27   0.0000       0.036753         1.0001
  28   0.0000       0.039969         1.0876
  29   0.0000       0.056327         1.5327

MULLIKEN ATOMIC CHARGES
-----------------------
   0 C :    0.211601
   1 C :   -0.065955
   2 C :   -0.041017
   3 H :    0.043161
   4 H :    0.042761
   5 C :   -0.041490
   6 H :    0.027125
   7 H :    0.026110
   8 C :   -0.123420
   9 H :    0.028855
  10 H :    0.027871
  11 H :    0.037347
  12 H :    0.040166
  13 H :    0.037242
  14 F :   -0.322056
  15 H :    0.035594
  16 H :    0.036104
Sum of atomic charges:   -0.0000000

LOEWDIN ATOMIC CHARGES
----------------------
   0 C :   -0.189390
   1 C :    0.073720
   2 C :    0.081950
   3 H :   -0.041930
   4 H :   -0.041859
   5 C :    0.070548
   6 H :   -0.041408
   7 H :   -0.041459
   8 C :    0.209144
   9 H :   -0.045430
  10 H :   -0.045384
  11 H :   -0.057140
  12 H :   -0.058940
  13 H :   -0.057106
  14 F :    0.307663
  15 H :   -0.061482
  16 H :   -0.061497

  Mayer bond orders larger than 0.100000
B(  0-C ,  1-C ) :   0.9708 B(  0-C , 14-F ) :   0.9139 B(  0-C , 15-H ) :   0.9549
B(  0-C , 16-H ) :   0.9547 B(  1-C ,  2-C ) :   0.9265 B(  1-C ,  3-H ) :   0.9489
B(  1-C ,  4-H ) :   0.9490 B(  2-C ,  5-C ) :   0.9385 B(  2-C ,  6-H ) :   0.9545
B(  2-C ,  7-H ) :   0.9547 B(  5-C ,  8-C ) :   0.9494 B(  5-C ,  9-H ) :   0.9604
B(  5-C , 10-H ) :   0.9605 B(  8-C , 11-H ) :   0.9690 B(  8-C , 12-H ) :   0.9742
B(  8-C , 13-H ) :   0.9690

Dispersion correction           -0.016770649
FINAL SINGLE POINT ENERGY      -296.982146334750

DIPOLE MOMENT
-------------
                                X             Y             Z
Electronic contribution:     12.89014       0.95595      -0.00351
Nuclear contribution   :    -13.63521      -1.23065       0.00857
                        -----------------------------------------
Total Dipole Moment    :     -0.74507      -0.27471       0.00506
                        -----------------------------------------
Magnitude (a.u.)       :      0.79412
Magnitude (Debye)      :      2.01849

Rotational constants in cm-1:     0.533600     0.036863     0.035635
Rotational constants in MHz : 15996.914139  1105.117191  1068.306428

                             ****ORCA TERMINATED NORMALLY****
TOTAL RUN TIME: 0 days 0 hours 45 minutes 36 seconds 224 msec
