                         Program Version 5.0.4 -  RELEASE  -
|  1> !B3LYP DEF2-SVP OPT FREQ D4 SOSCF
|  2>
|  3> %geom
|  4> convergence tight
|  5> maxiter 1000
|  6> end
|  7>
|  8> * xyz 1 1
|  9>    C       -6.09482        0.65444        1.91488
| 10>    C       -6.58291        1.14340        0.67928
| 11>    C       -6.43936        0.40003       -0.46954
| 12>    C       -5.81127       -0.86138       -0.41969
| 13>    C       -5.29103       -1.35183        0.79010
| 14>    C       -5.43085       -0.61150        1.93646
| 15>    C       -6.26107        1.42562        3.16364
| 16>    H       -5.29135        1.68395        3.59469
| 17>    H       -6.73884        0.82157        3.91751
| 18>    H       -6.81767        2.33033        3.03463
| 19>    H       -7.06923        2.11075        0.65723
| 20>    H       -6.80990        0.77716       -1.40792
| 21>    H       -5.74441       -1.48101       -1.31093
| 22>    H       -4.79833       -2.31488        0.80431
| 23>    H       -5.04948       -0.97588        2.87643
| 24>    N       -9.16178       -1.39965      -13.84865
| 25>    O       -8.48959       -1.06640      -12.74168
| 26>    O       -8.12570       -0.31609      -14.71866
| 27> **                         ****END OF INPUT****
 Total Charge           Charge          ....    1
 Multiplicity           Mult            ....    1
 Number of Electrons    NEL             ....   72
Dispersion correction           -0.021460030
FINAL SINGLE POINT ENERGY      -475.531828890313
Dispersion correction            ... Starting D4
Dispersion correction           -0.021445290
FINAL SINGLE POINT ENERGY      -475.582575540892
Dispersion correction            ... Starting D4
Dispersion correction           -0.021428118
FINAL SINGLE POINT ENERGY      -475.604268231307
Dispersion correction            ... Starting D4
FINAL SINGLE POINT ENERGY      -475.619045215969
FINAL SINGLE POINT ENERGY      -475.622724060489
FINAL SINGLE POINT ENERGY      -475.625382339900
FINAL SINGLE POINT ENERGY      -475.625862231176
FINAL SINGLE POINT ENERGY      -475.625908877962
FINAL SINGLE POINT ENERGY      -475.625928092915
FINAL SINGLE POINT ENERGY      -475.625945328948
FINAL SINGLE POINT ENERGY      -475.626330629703
FINAL SINGLE POINT ENERGY      -475.626330539347
FINAL SINGLE POINT ENERGY      -475.626330517303
FINAL SINGLE POINT ENERGY      -475.626331049658
FINAL SINGLE POINT ENERGY      -475.626330829033
FINAL SINGLE POINT ENERGY      -475.626330778032
FINAL SINGLE POINT ENERGY      -475.626330851054
Dispersion correction           -0.021438573
FINAL SINGLE POINT ENERGY      -475.626331196972
Dispersion correction            ... Starting D4
Dispersion correction           -0.021438628
FINAL SINGLE POINT ENERGY      -475.626331163262
Dispersion correction            ... Starting D4
                    ***********************HURRAY********************

CARTESIAN COORDINATES (ANGSTROEM)
---------------------------------
  C     -6.088658    0.652025    2.320762
  C     -6.164725    1.356669    1.081114
  C     -5.798133    0.739323   -0.098033
  C     -5.341854   -0.605581   -0.079093
  C     -5.259204   -1.323457    1.138390
  C     -5.625544   -0.708479    2.317222
  C     -6.483979    1.291713    3.595544
  H     -5.690711    1.170110    4.358017
  H     -7.362179    0.764770    4.024313
  H     -6.732091    2.355044    3.485874
  H     -6.515619    2.390955    1.080641
  H     -5.854540    1.276763   -1.047017
  H     -5.051802   -1.090390   -1.014941
  H     -4.906501   -2.356855    1.136207
  H     -5.567765   -1.248325    3.265607
  N     -9.497563   -1.621332  -15.925186
  O     -9.164115   -1.416158  -14.737106
  O     -8.902607   -0.658167  -16.450225

 Multiplicity           Mult            ....    1
 Number of Electrons    NEL             ....   72
 Basis Dimension        Dim             ....  180

ORBITAL ENERGIES
----------------

  NO   OCC          E(Eh)            E(eV)
   0   2.0000     -19.382202      -527.4165
   1   2.0000     -19.380954      -527.3826
   2   2.0000     -14.643478      -398.4693
   3   2.0000     -10.394643      -282.8526
   4   2.0000     -10.382576      -282.5242
   5   2.0000     -10.363654      -282.0094
   6   2.0000     -10.361525      -281.9514
   7   2.0000     -10.359849      -281.9058
   8   2.0000     -10.358480      -281.8686
   9   2.0000     -10.338126      -281.3147
  10   2.0000      -1.395748       -37.9802
  11   2.0000      -1.157471       -31.4964
  12   2.0000      -1.021176       -27.7876
  13   2.0000      -0.933641       -25.4057
  14   2.0000      -0.908723       -24.7276
  15   2.0000      -0.838627       -22.8202
  16   2.0000      -0.781369       -21.2621
  17   2.0000      -0.765481       -20.8298
  18   2.0000      -0.743762       -20.2388
  19   2.0000      -0.671600       -18.2752
  20   2.0000      -0.659536       -17.9469
  21   2.0000      -0.656832       -17.8733
  22   2.0000      -0.647876       -17.6296
  23   2.0000      -0.631719       -17.1899
  24   2.0000      -0.610469       -16.6117
  25   2.0000      -0.587697       -15.9921
  26   2.0000      -0.573782       -15.6134
  27   2.0000      -0.573355       -15.6018
  28   2.0000      -0.539276       -14.6744
  29   2.0000      -0.515864       -14.0374
  30   2.0000      -0.514671       -14.0049
  31   2.0000      -0.502882       -13.6841
  32   2.0000      -0.480856       -13.0848
  33   2.0000      -0.444994       -12.1089
  34   2.0000      -0.425046       -11.5661
  35   2.0000      -0.394408       -10.7324
  36   0.0000      -0.388280       -10.5656
  37   0.0000      -0.220869        -6.0102
  38   0.0000      -0.183400        -4.9906
  39   0.0000      -0.168333        -4.5806
  40   0.0000      -0.070573        -1.9204

MULLIKEN ATOMIC CHARGES
-----------------------
   0 C :   -0.036900
   1 C :    0.042610
   2 C :    0.051032
   3 C :    0.079544
   4 C :    0.046938
   5 C :    0.045530
   6 C :    0.059505
   7 H :    0.085987
   8 H :    0.093636
   9 H :    0.062453
  10 H :    0.037287
  11 H :    0.050918
  12 H :    0.063793
  13 H :    0.051142
  14 H :    0.038547
  15 N :    0.299137
  16 O :   -0.039768
  17 O :   -0.031390
Sum of atomic charges:    1.0000000

LOEWDIN ATOMIC CHARGES
----------------------
   0 C :    0.095857
   1 C :    0.021116
   2 C :    0.028962
   3 C :    0.112171
   4 C :    0.016172
   5 C :    0.036700
   6 C :   -0.027316
   7 H :    0.074549
   8 H :    0.081939
   9 H :    0.051270
  10 H :    0.053236
  11 H :    0.057270
  12 H :    0.059199
  13 H :    0.057372
  14 H :    0.053523
  15 N :    0.156607
  16 O :    0.031631
  17 O :    0.039741

  Mayer bond orders larger than 0.100000
B(  0-C ,  1-C ) :   1.2361 B(  0-C ,  5-C ) :   1.1894 B(  0-C ,  6-C ) :   1.1150
B(  0-C , 16-O ) :   0.1324 B(  0-C , 17-O ) :   0.1328 B(  1-C ,  2-C ) :   1.4739
B(  1-C , 10-H ) :   0.9883 B(  2-C ,  3-C ) :   1.2384 B(  2-C , 11-H ) :   0.9841
B(  3-C ,  4-C ) :   1.2608 B(  3-C , 12-H ) :   0.9823 B(  3-C , 16-O ) :   0.1428
B(  3-C , 17-O ) :   0.1432 B(  4-C ,  5-C ) :   1.4825 B(  4-C , 13-H ) :   0.9858
B(  5-C , 14-H ) :   0.9909 B(  6-C ,  7-H ) :   0.9188 B(  6-C ,  8-H ) :   0.9068
B(  6-C ,  9-H ) :   0.9576 B( 15-N , 16-O ) :   1.3885 B( 15-N , 17-O ) :   1.3959
B( 16-O , 17-O ) :   0.4795

Dispersion correction           -0.021438624
FINAL SINGLE POINT ENERGY      -475.626331234973

DIPOLE MOMENT
-------------
                                X             Y             Z
Electronic contribution:     -6.79411      -4.82743     -42.18461
Nuclear contribution   :      7.33301       4.97308      45.62742
                        -----------------------------------------
Total Dipole Moment    :      0.53890       0.14565       3.44281
                        -----------------------------------------
Magnitude (a.u.)       :      3.48777
Magnitude (Debye)      :      8.86522

Dispersion correction in the Hessian             ... Starting D4

VIBRATIONAL FREQUENCIES
-----------------------

Scaling factor for frequencies =  1.000000000  (already applied!)

   0:         0.00 cm**-1
   1:         0.00 cm**-1
   2:         0.00 cm**-1
   3:         0.00 cm**-1
   4:         0.00 cm**-1
   5:         0.00 cm**-1
   6:       -21.02 cm**-1 ***imaginary mode***
   7:       -13.23 cm**-1 ***imaginary mode***
   8:        -5.34 cm**-1 ***imaginary mode***
   9:        -2.30 cm**-1 ***imaginary mode***
  10:         3.18 cm**-1
  11:         4.06 cm**-1
  12:        24.10 cm**-1
  13:       172.61 cm**-1
  14:       347.95 cm**-1
  15:       371.98 cm**-1
  16:       425.96 cm**-1
  17:       515.55 cm**-1
  18:       534.91 cm**-1
  19:       609.42 cm**-1
  20:       709.88 cm**-1
  21:       751.26 cm**-1
  22:       790.32 cm**-1
  23:       816.21 cm**-1
  24:       834.91 cm**-1
  25:       936.35 cm**-1
  26:       968.30 cm**-1
  27:      1001.77 cm**-1
  28:      1004.66 cm**-1
  29:      1013.59 cm**-1
  30:      1020.21 cm**-1
  31:      1038.70 cm**-1
  32:      1091.57 cm**-1
  33:      1152.36 cm**-1
  34:      1198.32 cm**-1
  35:      1258.06 cm**-1
  36:      1289.46 cm**-1
  37:      1340.45 cm**-1
  38:      1384.44 cm**-1
  39:      1399.28 cm**-1
  40:      1414.96 cm**-1
  41:      1451.09 cm**-1
  42:      1483.70 cm**-1
  43:      1522.39 cm**-1
  44:      1530.32 cm**-1
  45:      1674.41 cm**-1
  46:      2979.45 cm**-1
  47:      3033.96 cm**-1
  48:      3157.31 cm**-1
  49:      3197.45 cm**-1
  50:      3201.32 cm**-1
  51:      3206.48 cm**-1
  52:      3215.50 cm**-1
  53:      3219.66 cm**-1

IR SPECTRUM
-----------

 Mode   freq       eps      Int      T**2         TX        TY        TZ
       cm**-1   L/(mol*cm) km/mol    a.u.
----------------------------------------------------------------------------
 10:      3.18   0.000000    0.00  0.000000  ( 0.000000  0.000000  0.000000)
 11:      4.06   0.000000    0.00  0.000000  ( 0.000000  0.000000  0.000000)
 12:     24.10   0.000689    3.48  0.008925  ( 0.091353  0.005028  0.023542)
 13:    172.61   0.000227    1.15  0.000411  (-0.018290 -0.008350 -0.002538)
 14:    347.95   0.000956    4.83  0.000858  ( 0.006144 -0.006742  0.027829)
 15:    371.98   0.000002    0.01  0.000001  (-0.000889  0.000686 -0.000159)
 16:    425.96   0.000107    0.54  0.000078  ( 0.007218  0.002356 -0.004532)
 17:    515.55   0.021894  110.64  0.013252  (-0.019588 -0.015290 -0.112405)
 18:    534.91   0.009506   48.04  0.005545  (-0.018188  0.006230 -0.071944)
 19:    609.42   0.004174   21.09  0.002137  (-0.043565 -0.013490  0.007585)
 20:    709.88   1.386236  7005.47  0.609387  (-0.161892 -0.082949 -0.759143)
 21:    751.26   0.006347   32.08  0.002637  ( 0.047499  0.017504  0.008607)
 22:    790.32   0.001009    5.10  0.000399  (-0.009397 -0.001177 -0.017575)
 23:    816.21   0.000114    0.58  0.000044  ( 0.005889  0.001654  0.002520)
 24:    834.91   0.043878  221.74  0.016400  ( 0.004627  0.032859 -0.123690)
 25:    936.35   0.001707    8.63  0.000569  (-0.007085  0.000740  0.022765)
 26:    968.30   0.035288  178.33  0.011373  ( 0.010887  0.009757  0.105636)
 27:   1001.77   0.013065   66.02  0.004070  ( 0.004708  0.000160  0.063621)
 28:   1004.66   0.003282   16.59  0.001020  ( 0.030771  0.005034  0.006881)
 29:   1013.59   0.002767   13.98  0.000852  (-0.012263  0.005785 -0.025846)
 30:   1020.21   0.000066    0.33  0.000020  (-0.003787 -0.001039  0.002180)
 31:   1038.70   0.000032    0.16  0.000010  ( 0.002413  0.001110  0.001605)
 32:   1091.57   0.003321   16.78  0.000949  ( 0.008400 -0.025301  0.015452)
 33:   1152.36   0.009017   45.57  0.002442  (-0.003411 -0.006178 -0.048909)
 34:   1198.32   0.057432  290.24  0.014956  (-0.019348 -0.011493 -0.120207)
 35:   1258.06   0.054875  277.31  0.013612  ( 0.013882  0.014301  0.114955)
 36:   1289.46   0.041289  208.66  0.009992  (-0.001944 -0.012526 -0.099155)
 37:   1340.45   0.057843  292.32  0.013466  (-0.002269  0.008997  0.115672)
 38:   1384.44   0.000465    2.35  0.000105  (-0.009264  0.003908  0.001908)
 39:   1399.28   0.002960   14.96  0.000660  (-0.024136  0.001716 -0.008635)
 40:   1414.96   0.005491   27.75  0.001211  ( 0.006619 -0.024304  0.024012)
 41:   1451.09   0.021342  107.85  0.004590  (-0.002057  0.000164 -0.067716)
 42:   1483.70   0.049721  251.27  0.010458  ( 0.010831 -0.032111 -0.096485)
 43:   1522.39   0.005236   26.46  0.001073  (-0.007225  0.024567 -0.020436)
 44:   1530.32   0.083901  424.00  0.017109  ( 0.036045  0.026392  0.122936)
 45:   1674.41   0.321776  1626.12  0.059970  ( 0.043169  0.021712  0.240073)
 46:   2979.45   0.120605  609.49  0.012632  ( 0.003581  0.016803  0.111071)
 47:   3033.96   0.004077   20.60  0.000419  ( 0.008573  0.004311  0.018090)
 48:   3157.31   0.017942   90.67  0.001773  ( 0.002054  0.008652  0.041161)
 49:   3197.45   0.000147    0.74  0.000014  ( 0.000086  0.001702  0.003388)
 50:   3201.32   0.000021    0.11  0.000002  ( 0.000251  0.000790 -0.001162)
 51:   3206.48   0.001052    5.32  0.000102  ( 0.002643  0.000036  0.009768)
 52:   3215.50   0.000676    3.42  0.000066  (-0.001958  0.006500 -0.004418)
 53:   3219.66   0.000991    5.01  0.000096  ( 0.000351  0.001963  0.009593)

--------------------------
THERMOCHEMISTRY AT 298.15K
--------------------------

Temperature         ... 298.15 K
Pressure            ... 1.00 atm
Total Mass          ... 138.15 AMU

Throughout the following assumptions are being made:
  (1) The electronic state is orbitally nondegenerate
  (2) There are no thermally accessible electronically excited states
  (3) Hindered rotations indicated by low frequency modes are not
      treated as such but are treated as vibrations and this may
      cause some error
  (4) All equations used are the standard statistical mechanics
      equations for an ideal gas
  (5) All vibrations are strictly harmonic

freq.       3.18  E(vib)   ...       0.59
freq.       4.06  E(vib)   ...       0.59
freq.      24.10  E(vib)   ...       0.56
freq.     172.61  E(vib)   ...       0.38
freq.     347.95  E(vib)   ...       0.23
freq.     371.98  E(vib)   ...       0.21
freq.     425.96  E(vib)   ...       0.18
freq.     515.55  E(vib)   ...       0.13
freq.     534.91  E(vib)   ...       0.13
freq.     609.42  E(vib)   ...       0.10
freq.     709.88  E(vib)   ...       0.07
freq.     751.26  E(vib)   ...       0.06
freq.     790.32  E(vib)   ...       0.05
freq.     816.21  E(vib)   ...       0.05
freq.     834.91  E(vib)   ...       0.04
freq.     936.35  E(vib)   ...       0.03
freq.     968.30  E(vib)   ...       0.03
freq.    1001.77  E(vib)   ...       0.02
freq.    1004.66  E(vib)   ...       0.02
freq.    1013.59  E(vib)   ...       0.02
freq.    1020.21  E(vib)   ...       0.02
freq.    1038.70  E(vib)   ...       0.02
freq.    1091.57  E(vib)   ...       0.02
freq.    1152.36  E(vib)   ...       0.01
freq.    1198.32  E(vib)   ...       0.01
freq.    1258.06  E(vib)   ...       0.01
freq.    1289.46  E(vib)   ...       0.01
freq.    1340.45  E(vib)   ...       0.01
freq.    1384.44  E(vib)   ...       0.00
freq.    1399.28  E(vib)   ...       0.00
freq.    1414.96  E(vib)   ...       0.00
freq.    1451.09  E(vib)   ...       0.00
freq.    1483.70  E(vib)   ...       0.00
freq.    1522.39  E(vib)   ...       0.00
freq.    1530.32  E(vib)   ...       0.00
freq.    1674.41  E(vib)   ...       0.00
freq.    2979.45  E(vib)   ...       0.00
freq.    3033.96  E(vib)   ...       0.00
freq.    3157.31  E(vib)   ...       0.00
freq.    3197.45  E(vib)   ...       0.00
freq.    3201.32  E(vib)   ...       0.00
freq.    3206.48  E(vib)   ...       0.00
freq.    3215.50  E(vib)   ...       0.00
freq.    3219.66  E(vib)   ...       0.00

------------
INNER ENERGY
------------

The inner energy is: U= E(el) + E(ZPE) + E(vib) + E(rot) + E(trans)
    E(el)   - is the total energy from the electronic structure calculation
              = E(kin-el) + E(nuc-el) + E(el-el) + E(nuc-nuc)
    E(ZPE)  - the the zero temperature vibrational energy from the frequency calculation
    E(vib)  - the the finite temperature correction to E(ZPE) due to population
              of excited vibrational states
    E(rot)  - is the rotational thermal energy
    E(trans)- is the translational thermal energy

Summary of contributions to the inner energy U:
Electronic energy                ...   -475.62633123 Eh
Zero point energy                ...      0.13281223 Eh      83.34 kcal/mol
Thermal vibrational correction   ...      0.00575165 Eh       3.61 kcal/mol
Thermal rotational correction    ...      0.00141627 Eh       0.89 kcal/mol
Thermal translational correction ...      0.00141627 Eh       0.89 kcal/mol
-----------------------------------------------------------------------
Total thermal energy                   -475.48493480 Eh

Summary of corrections to the electronic energy:
(perhaps to be used in another calculation)
Total thermal correction                  0.00858420 Eh       5.39 kcal/mol
Non-thermal (ZPE) correction              0.13281223 Eh      83.34 kcal/mol
-----------------------------------------------------------------------
Total correction                          0.14139643 Eh      88.73 kcal/mol

--------
ENTHALPY
--------

The enthalpy is H = U + kB*T
                kB is Boltzmann's constant
Total free energy                 ...   -475.48493480 Eh
Thermal Enthalpy correction       ...      0.00094421 Eh       0.59 kcal/mol
-----------------------------------------------------------------------
Total Enthalpy                    ...   -475.48399059 Eh

Note: Only C1 symmetry has been detected, increase convergence thresholds
      if your molecule has a higher symmetry. Symmetry factor of 1.0 is
      used for the rotational entropy correction.

Note: Rotational entropy computed according to Herzberg
Infrared and Raman Spectra, Chapter V,1, Van Nostrand Reinhold, 1945
Point Group:  C1, Symmetry Number:   1
Rotational constants in cm-1:     0.111510     0.001740     0.001723

Vibrational entropy computed according to the QRRHO of S. Grimme
Chem.Eur.J. 2012 18 9955

-------
ENTROPY
-------

The entropy contributions are T*S = T*(S(el)+S(vib)+S(rot)+S(trans))
     S(el)   - electronic entropy
     S(vib)  - vibrational entropy
     S(rot)  - rotational entropy
     S(trans)- translational entropy
The entropies will be listed as multiplied by the temperature to get
units of energy

Electronic entropy                ...      0.00000000 Eh      0.00 kcal/mol
Vibrational entropy               ...      0.01230837 Eh      7.72 kcal/mol
Rotational entropy                ...      0.01655025 Eh     10.39 kcal/mol
Translational entropy             ...      0.01932890 Eh     12.13 kcal/mol
-----------------------------------------------------------------------
Final entropy term                ...      0.04818751 Eh     30.24 kcal/mol

In case the symmetry of your molecule has not been determined correctly
or in case you have a reason to use a different symmetry number we print
out the resulting rotational entropy values for sn=1,12 :
 --------------------------------------------------------
|  sn= 1 | S(rot)=       0.01655025 Eh     10.39 kcal/mol|
|  sn= 2 | S(rot)=       0.01589579 Eh      9.97 kcal/mol|
|  sn= 3 | S(rot)=       0.01551296 Eh      9.73 kcal/mol|
|  sn= 4 | S(rot)=       0.01524133 Eh      9.56 kcal/mol|
|  sn= 5 | S(rot)=       0.01503065 Eh      9.43 kcal/mol|
|  sn= 6 | S(rot)=       0.01485850 Eh      9.32 kcal/mol|
|  sn= 7 | S(rot)=       0.01471296 Eh      9.23 kcal/mol|
|  sn= 8 | S(rot)=       0.01458688 Eh      9.15 kcal/mol|
|  sn= 9 | S(rot)=       0.01447567 Eh      9.08 kcal/mol|
|  sn=10 | S(rot)=       0.01437619 Eh      9.02 kcal/mol|
|  sn=11 | S(rot)=       0.01428620 Eh      8.96 kcal/mol|
|  sn=12 | S(rot)=       0.01420405 Eh      8.91 kcal/mol|
 --------------------------------------------------------

-------------------
GIBBS FREE ENERGY
-------------------

                             ****ORCA TERMINATED NORMALLY****
TOTAL RUN TIME: 2 days 2 hours 18 minutes 22 seconds 838 msec
