                         Program Version 5.0.4 -  RELEASE  -
|  1> !B3LYP DEF2-SVP OPT FREQ
|  2>
|  3> * xyz 0 1
|  4> O 0 0 0
|  5> H -1 1 0
|  6> H 1 0 0
|  7> **                         ****END OF INPUT****
 Total Charge           Charge          ....    0
 Multiplicity           Mult            ....    1
 Number of Electrons    NEL             ....   10
FINAL SINGLE POINT ENERGY       -76.214098005943
FINAL SINGLE POINT ENERGY       -76.256661404638
FINAL SINGLE POINT ENERGY       -76.295108131726
FINAL SINGLE POINT ENERGY       -76.318256454189
FINAL SINGLE POINT ENERGY       -76.320482037354
FINAL SINGLE POINT ENERGY       -76.321253509753
FINAL SINGLE POINT ENERGY       -76.321272193775
                    ***********************HURRAY********************

CARTESIAN COORDINATES (ANGSTROEM)
---------------------------------
  O     -0.164074   -0.032418    0.000000
  H     -0.608833    0.826089    0.000000
  H      0.772907    0.206329    0.000000

 Multiplicity           Mult            ....    1
 Number of Electrons    NEL             ....   10
 Basis Dimension        Dim             ....   24

ORBITAL ENERGIES
----------------

  NO   OCC          E(Eh)            E(eV)
   0   2.0000     -19.116180      -520.1777
   1   2.0000      -0.976152       -26.5624
   2   2.0000      -0.508046       -13.8246
   3   2.0000      -0.364375        -9.9151
   4   2.0000      -0.288112        -7.8399
   5   0.0000       0.047722         1.2986
   6   0.0000       0.126646         3.4462
   7   0.0000       0.558354        15.1936
   8   0.0000       0.623836        16.9754
   9   0.0000       0.920638        25.0518

MULLIKEN ATOMIC CHARGES
-----------------------
   0 O :   -0.293746
   1 H :    0.146862
   2 H :    0.146884
Sum of atomic charges:    0.0000000

LOEWDIN ATOMIC CHARGES
----------------------
   0 O :   -0.150114
   1 H :    0.075043
   2 H :    0.075071

  Mayer bond orders larger than 0.100000
B(  0-O ,  1-H ) :   1.0082 B(  0-O ,  2-H ) :   1.0081

FINAL SINGLE POINT ENERGY       -76.321272298568

DIPOLE MOMENT
-------------
                                X             Y             Z
Electronic contribution:     -0.08706      -0.19397       0.00000
Nuclear contribution   :      0.40971       0.91331       0.00000
                        -----------------------------------------
Total Dipole Moment    :      0.32265       0.71935       0.00000
                        -----------------------------------------
Magnitude (a.u.)       :      0.78839
Magnitude (Debye)      :      2.00393

VIBRATIONAL FREQUENCIES
-----------------------

Scaling factor for frequencies =  1.000000000  (already applied!)

   0:         0.00 cm**-1
   1:         0.00 cm**-1
   2:         0.00 cm**-1
   3:         0.00 cm**-1
   4:         0.00 cm**-1
   5:         0.00 cm**-1
   6:      1637.88 cm**-1
   7:      3787.60 cm**-1
   8:      3882.18 cm**-1

IR SPECTRUM
-----------

 Mode   freq       eps      Int      T**2         TX        TY        TZ
       cm**-1   L/(mol*cm) km/mol    a.u.
----------------------------------------------------------------------------
  6:   1637.88   0.010976   55.47  0.002091  (-0.018726 -0.041720  0.000000)
  7:   3787.60   0.000934    4.72  0.000077  (-0.003644 -0.007979 -0.000000)
  8:   3882.18   0.005267   26.62  0.000423  ( 0.018763 -0.008445  0.000000)

--------------------------
THERMOCHEMISTRY AT 298.15K
--------------------------

Temperature         ... 298.15 K
Pressure            ... 1.00 atm
Total Mass          ... 18.02 AMU

Throughout the following assumptions are being made:
  (1) The electronic state is orbitally nondegenerate
  (2) There are no thermally accessible electronically excited states
  (3) Hindered rotations indicated by low frequency modes are not
      treated as such but are treated as vibrations and this may
      cause some error
  (4) All equations used are the standard statistical mechanics
      equations for an ideal gas
  (5) All vibrations are strictly harmonic

freq.    1637.88  E(vib)   ...       0.00
freq.    3787.60  E(vib)   ...       0.00
freq.    3882.18  E(vib)   ...       0.00

------------
INNER ENERGY
------------

The inner energy is: U= E(el) + E(ZPE) + E(vib) + E(rot) + E(trans)
    E(el)   - is the total energy from the electronic structure calculation
              = E(kin-el) + E(nuc-el) + E(el-el) + E(nuc-nuc)
    E(ZPE)  - the the zero temperature vibrational energy from the frequency calculation
    E(vib)  - the the finite temperature correction to E(ZPE) due to population
              of excited vibrational states
    E(rot)  - is the rotational thermal energy
    E(trans)- is the translational thermal energy

Summary of contributions to the inner energy U:
Electronic energy                ...    -76.32127230 Eh
Zero point energy                ...      0.02120442 Eh      13.31 kcal/mol
Thermal vibrational correction   ...      0.00000276 Eh       0.00 kcal/mol
Thermal rotational correction    ...      0.00141627 Eh       0.89 kcal/mol
Thermal translational correction ...      0.00141627 Eh       0.89 kcal/mol
-----------------------------------------------------------------------
Total thermal energy                    -76.29723257 Eh

Summary of corrections to the electronic energy:
(perhaps to be used in another calculation)
Total thermal correction                  0.00283530 Eh       1.78 kcal/mol
Non-thermal (ZPE) correction              0.02120442 Eh      13.31 kcal/mol
-----------------------------------------------------------------------
Total correction                          0.02403972 Eh      15.09 kcal/mol

--------
ENTHALPY
--------

The enthalpy is H = U + kB*T
                kB is Boltzmann's constant
Total free energy                 ...    -76.29723257 Eh
Thermal Enthalpy correction       ...      0.00094421 Eh       0.59 kcal/mol
-----------------------------------------------------------------------
Total Enthalpy                    ...    -76.29628837 Eh

Note: Rotational entropy computed according to Herzberg
Infrared and Raman Spectra, Chapter V,1, Van Nostrand Reinhold, 1945
Point Group:  C2v, Symmetry Number:   2
Rotational constants in cm-1:    26.041405    14.584918     9.348908

Vibrational entropy computed according to the QRRHO of S. Grimme
Chem.Eur.J. 2012 18 9955

-------
ENTROPY
-------

The entropy contributions are T*S = T*(S(el)+S(vib)+S(rot)+S(trans))
     S(el)   - electronic entropy
     S(vib)  - vibrational entropy
     S(rot)  - rotational entropy
     S(trans)- translational entropy
The entropies will be listed as multiplied by the temperature to get
units of energy

Electronic entropy                ...      0.00000000 Eh      0.00 kcal/mol
Vibrational entropy               ...      0.00000311 Eh      0.00 kcal/mol
Rotational entropy                ...      0.00499704 Eh      3.14 kcal/mol
Translational entropy             ...      0.01644380 Eh     10.32 kcal/mol
-----------------------------------------------------------------------
Final entropy term                ...      0.02144395 Eh     13.46 kcal/mol

In case the symmetry of your molecule has not been determined correctly
or in case you have a reason to use a different symmetry number we print
out the resulting rotational entropy values for sn=1,12 :
 --------------------------------------------------------
|  sn= 1 | S(rot)=       0.00565150 Eh      3.55 kcal/mol|
|  sn= 2 | S(rot)=       0.00499704 Eh      3.14 kcal/mol|
|  sn= 3 | S(rot)=       0.00461421 Eh      2.90 kcal/mol|
|  sn= 4 | S(rot)=       0.00434259 Eh      2.73 kcal/mol|
|  sn= 5 | S(rot)=       0.00413190 Eh      2.59 kcal/mol|
|  sn= 6 | S(rot)=       0.00395976 Eh      2.48 kcal/mol|
|  sn= 7 | S(rot)=       0.00381421 Eh      2.39 kcal/mol|
|  sn= 8 | S(rot)=       0.00368813 Eh      2.31 kcal/mol|
|  sn= 9 | S(rot)=       0.00357692 Eh      2.24 kcal/mol|
|  sn=10 | S(rot)=       0.00347744 Eh      2.18 kcal/mol|
|  sn=11 | S(rot)=       0.00338745 Eh      2.13 kcal/mol|
|  sn=12 | S(rot)=       0.00330530 Eh      2.07 kcal/mol|
 --------------------------------------------------------

-------------------
GIBBS FREE ENERGY
-------------------

The Gibbs free energy is G = H - T*S

Total enthalpy                    ...    -76.29628837 Eh
Total entropy correction          ...     -0.02144395 Eh    -13.46 kcal/mol
-----------------------------------------------------------------------
Final Gibbs free energy         ...    -76.31773232 Eh

For completeness - the Gibbs free energy minus the electronic energy
G-E(el)                           ...      0.00353998 Eh      2.22 kcal/mol

                             ****ORCA TERMINATED NORMALLY****
TOTAL RUN TIME: 0 days 0 hours 1 minutes 22 seconds 305 msec
