                         Program Version 5.0.4 -  RELEASE  -
|  1> !B3LYP/G DEF2-TZVP OPT FREQ D4
|  2>
|  3>
|  4> #Coordinates from ORCA-job para_products_optfreq
|  5>
|  6> * xyz 1 1
|  7>   C   -6.03272976925791      0.66202686092243     -0.00335611510232
|  8>   C   -7.09821570108111      1.19894774032761     -0.77471113657779
|  9>   C   -7.43591232545049      0.64967627987355     -1.98588994085145
| 10>   C   -6.70761273555919     -0.46034757965679     -2.43347682228333
| 11>   C   -5.65062199121492     -1.02467249950356     -1.70607261136445
| 12>   C   -5.31965596244168     -0.45873597365192     -0.50021089616718
| 13>   C   -5.65908701808524      1.28394741727211      1.28668563808584
| 14>   H   -5.11354827452298      0.59984744652200      1.93484605029543
| 15>   H   -6.52796222537794      1.68804589143106      1.80943902983849
| 16>   H   -4.99681883222712      2.14271011547489      1.09400249811616
| 17>   H   -7.64450615207694      2.05192348446032     -0.39375820731890
| 18>   H   -8.23856179754150      1.04494587655011     -2.59147265100178
| 19>   H   -5.12674838826489     -1.88441367197798     -2.09908145735405
| 20>   H   -4.50763408833772     -0.86951726570140      0.08476348643750
| 21>   N   -7.07125511545366     -1.05979532597181     -3.71308439062913
| 22>   O   -7.04837329841035     -2.27607713610621     -3.77689769956075
| 23>   O   -7.37554892174536     -0.30407133378728     -4.61599523424269
| 24>   H   -12.34767740295072     -5.34420032647714     -6.21336954031954
| 25> *
| 26>
| 27>                          ****END OF INPUT****
 Total Charge           Charge          ....    1
 Multiplicity           Mult            ....    1
 Number of Electrons    NEL             ....   72
Dispersion correction           -0.026612307
FINAL SINGLE POINT ENERGY      -476.401514275267
Dispersion correction            ... Starting D4
Dispersion correction           -0.026620964
FINAL SINGLE POINT ENERGY      -476.401561827694
Dispersion correction            ... Starting D4
Dispersion correction           -0.026626551
FINAL SINGLE POINT ENERGY      -476.401606035618
Dispersion correction            ... Starting D4
FINAL SINGLE POINT ENERGY      -476.401651927238
FINAL SINGLE POINT ENERGY      -476.401709413130
FINAL SINGLE POINT ENERGY      -476.401781228293
FINAL SINGLE POINT ENERGY      -476.401853118644
FINAL SINGLE POINT ENERGY      -476.401940270965
FINAL SINGLE POINT ENERGY      -476.402061967442
FINAL SINGLE POINT ENERGY      -476.402154479602
FINAL SINGLE POINT ENERGY      -476.402810364211
FINAL SINGLE POINT ENERGY      -476.402805544300
FINAL SINGLE POINT ENERGY      -476.402800051214
FINAL SINGLE POINT ENERGY      -476.402793273395
FINAL SINGLE POINT ENERGY      -476.402803953999
FINAL SINGLE POINT ENERGY      -476.402810403671
FINAL SINGLE POINT ENERGY      -476.402814841674
Dispersion correction           -0.026627398
FINAL SINGLE POINT ENERGY      -476.402816745109
Dispersion correction            ... Starting D4
Dispersion correction           -0.026627339
FINAL SINGLE POINT ENERGY      -476.402819031531
Dispersion correction            ... Starting D4
                    ***********************HURRAY********************

CARTESIAN COORDINATES (ANGSTROEM)
---------------------------------
  C     -5.762936    0.847826    0.056931
  C     -6.858819    1.439797   -0.628321
  C     -7.454234    0.805252   -1.688080
  C     -6.956545   -0.446962   -2.068310
  C     -5.881324   -1.070802   -1.420552
  C     -5.290769   -0.416833   -0.367483
  C     -5.129014    1.561067    1.189265
  H     -4.370168    0.964116    1.688482
  H     -5.882973    1.876059    1.918762
  H     -4.664952    2.490417    0.833034
  H     -7.221876    2.405970   -0.303678
  H     -8.281886    1.241620   -2.228225
  H     -5.542728   -2.041133   -1.753973
  H     -4.456135   -0.869683    0.149997
  N     -7.588327   -1.139088   -3.185343
  O     -7.742775   -2.341300   -3.071142
  O     -7.913214   -0.464399   -4.144513
  H    -12.903796   -7.201685   -9.574492

 Multiplicity           Mult            ....    1
 Number of Electrons    NEL             ....   72
 Basis Dimension        Dim             ....  358

ORBITAL ENERGIES
----------------

  NO   OCC          E(Eh)            E(eV)
   0   2.0000     -19.316510      -525.6290
   1   2.0000     -19.316152      -525.6192
   2   2.0000     -14.701771      -400.0555
   3   2.0000     -10.412002      -283.3250
   4   2.0000     -10.382621      -282.5255
   5   2.0000     -10.359269      -281.8901
   6   2.0000     -10.357397      -281.8391
   7   2.0000     -10.353090      -281.7219
   8   2.0000     -10.350705      -281.6570
   9   2.0000     -10.319053      -280.7957
  10   2.0000      -1.388530       -37.7838
  11   2.0000      -1.215345       -33.0712
  12   2.0000      -1.052414       -28.6376
  13   2.0000      -0.978057       -26.6143
  14   2.0000      -0.932056       -25.3625
  15   2.0000      -0.896970       -24.4078
  16   2.0000      -0.812274       -22.1031
  17   2.0000      -0.792066       -21.5532
  18   2.0000      -0.744899       -20.2697
  19   2.0000      -0.711364       -19.3572
  20   2.0000      -0.692050       -18.8316
  21   2.0000      -0.667646       -18.1676
  22   2.0000      -0.640652       -17.4330
  23   2.0000      -0.634988       -17.2789
  24   2.0000      -0.610637       -16.6163
  25   2.0000      -0.602806       -16.4032
  26   2.0000      -0.580584       -15.7985
  27   2.0000      -0.546113       -14.8605
  28   2.0000      -0.536820       -14.6076
  29   2.0000      -0.532546       -14.4913
  30   2.0000      -0.515097       -14.0165
  31   2.0000      -0.467008       -12.7079
  32   2.0000      -0.461585       -12.5604
  33   2.0000      -0.454096       -12.3566
  34   2.0000      -0.435016       -11.8374
  35   2.0000      -0.404878       -11.0173
  36   0.0000      -0.396323       -10.7845
  37   0.0000      -0.233643        -6.3578
  38   0.0000      -0.181537        -4.9399
  39   0.0000      -0.170504        -4.6396
  40   0.0000      -0.084488        -2.2990

MULLIKEN ATOMIC CHARGES
-----------------------
   0 C :    0.175085
   1 C :   -0.101735
   2 C :   -0.140658
   3 C :    0.187660
   4 C :   -0.138800
   5 C :   -0.112989
   6 C :   -0.347507
   7 H :    0.150500
   8 H :    0.169099
   9 H :    0.174533
  10 H :    0.169683
  11 H :    0.186321
  12 H :    0.186730
  13 H :    0.166487
  14 N :    0.413295
  15 O :   -0.227779
  16 O :   -0.226828
  17 H :    0.316904
Sum of atomic charges:    1.0000000

LOEWDIN ATOMIC CHARGES
----------------------
   0 C :   -0.066535
   1 C :   -0.041253
   2 C :   -0.053723
   3 C :   -0.080578
   4 C :   -0.046503
   5 C :   -0.050038
   6 C :   -0.211045
   7 H :    0.141283
   8 H :    0.158203
   9 H :    0.163503
  10 H :    0.167088
  11 H :    0.171491
  12 H :    0.171614
  13 H :    0.166009
  14 N :   -0.030462
  15 O :    0.061553
  16 O :    0.062490
  17 H :    0.316904

  Mayer bond orders larger than 0.100000
B(  0-C ,  1-C ) :   1.2049 B(  0-C ,  5-C ) :   1.2637 B(  0-C ,  6-C ) :   0.9601
B(  0-C , 17-H ) :   0.1960 B(  1-C ,  2-C ) :   1.5056 B(  1-C , 10-H ) :   0.9565
B(  2-C ,  3-C ) :   1.2915 B(  2-C , 11-H ) :   0.9343 B(  3-C ,  4-C ) :   1.2837
B(  3-C , 14-N ) :   0.9180 B(  3-C , 17-H ) :   0.2084 B(  4-C ,  5-C ) :   1.4987
B(  4-C , 12-H ) :   0.9335 B(  5-C , 13-H ) :   0.9475 B(  6-C ,  7-H ) :   0.9809
B(  6-C ,  8-H ) :   0.9363 B(  6-C ,  9-H ) :   0.9200 B( 14-N , 15-O ) :   1.5852
B( 14-N , 16-O ) :   1.5894 B( 15-O , 16-O ) :   0.2266

Dispersion correction           -0.026627179
FINAL SINGLE POINT ENERGY      -476.402818482439

DIPOLE MOMENT
-------------
                                X             Y             Z
Electronic contribution:     -3.00688      -3.29632      -6.28719
Nuclear contribution   :      0.51621       0.48870       3.65532
                        -----------------------------------------
Total Dipole Moment    :     -2.49067      -2.80762      -2.63187
                        -----------------------------------------
Magnitude (a.u.)       :      4.58399
Magnitude (Debye)      :     11.65156

Dispersion correction in the Hessian             ... Starting D4

VIBRATIONAL FREQUENCIES
-----------------------

Scaling factor for frequencies =  1.000000000  (already applied!)

   0:         0.00 cm**-1
   1:         0.00 cm**-1
   2:         0.00 cm**-1
   3:         0.00 cm**-1
   4:         0.00 cm**-1
   5:         0.00 cm**-1
   6:        -6.51 cm**-1 ***imaginary mode***
   7:        -6.14 cm**-1 ***imaginary mode***
   8:         3.86 cm**-1
   9:        14.06 cm**-1
  10:        67.85 cm**-1
  11:        91.82 cm**-1
  12:       194.39 cm**-1
  13:       235.30 cm**-1
  14:       344.67 cm**-1
  15:       350.88 cm**-1
  16:       386.19 cm**-1
  17:       419.40 cm**-1
  18:       538.59 cm**-1
  19:       588.53 cm**-1
  20:       614.18 cm**-1
  21:       689.47 cm**-1
  22:       752.46 cm**-1
  23:       785.15 cm**-1
  24:       819.97 cm**-1
  25:       839.12 cm**-1
  26:       858.67 cm**-1
  27:       990.82 cm**-1
  28:       996.99 cm**-1
  29:      1001.28 cm**-1
  30:      1019.07 cm**-1
  31:      1026.51 cm**-1
  32:      1139.28 cm**-1
  33:      1156.28 cm**-1
  34:      1215.53 cm**-1
  35:      1250.88 cm**-1
  36:      1305.11 cm**-1
  37:      1356.32 cm**-1
  38:      1383.02 cm**-1
  39:      1388.90 cm**-1
  40:      1426.96 cm**-1
  41:      1441.99 cm**-1
  42:      1473.43 cm**-1
  43:      1488.72 cm**-1
  44:      1500.71 cm**-1
  45:      1541.64 cm**-1
  46:      1647.20 cm**-1
  47:      2996.03 cm**-1
  48:      3038.26 cm**-1
  49:      3143.65 cm**-1
  50:      3197.91 cm**-1
  51:      3203.19 cm**-1
  52:      3223.81 cm**-1
  53:      3223.99 cm**-1

IR SPECTRUM
-----------

 Mode   freq       eps      Int      T**2         TX        TY        TZ
       cm**-1   L/(mol*cm) km/mol    a.u.
----------------------------------------------------------------------------
  8:      3.86   0.000000    0.00  0.000000  ( 0.000000  0.000000  0.000000)
  9:     14.06   0.021399  108.14  0.475055  ( 0.290428  0.343808  0.522018)
 10:     67.85   0.000140    0.71  0.000644  ( 0.015748  0.017708  0.009098)
 11:     91.82   0.000183    0.92  0.000621  (-0.017398 -0.009690  0.014971)
 12:    194.39   0.000436    2.20  0.000700  (-0.014578  0.021341 -0.005669)
 13:    235.30   0.000563    2.84  0.000746  (-0.025466  0.003238  0.009329)
 14:    344.67   0.001027    5.19  0.000930  ( 0.013080  0.020597  0.018285)
 15:    350.88   0.000242    1.22  0.000215  (-0.007719  0.008657  0.008984)
 16:    386.19   0.000119    0.60  0.000096  (-0.006074 -0.006394 -0.004325)
 17:    419.40   0.000735    3.71  0.000547  ( 0.006158  0.020861 -0.008587)
 18:    538.59   0.002296   11.60  0.001330  ( 0.026706  0.015516 -0.019395)
 19:    588.53   0.000065    0.33  0.000035  (-0.002982  0.004485 -0.002370)
 20:    614.18   0.005245   26.50  0.002665  (-0.024144 -0.028429 -0.035688)
 21:    689.47   0.000355    1.79  0.000161  ( 0.011589  0.004762 -0.001917)
 22:    752.46   0.004451   22.50  0.001846  (-0.029508 -0.010729  0.029331)
 23:    785.15   0.000874    4.42  0.000347  ( 0.010152  0.008546  0.013089)
 24:    819.97   0.000825    4.17  0.000314  (-0.009716 -0.009644 -0.011247)
 25:    839.12   0.022389  113.14  0.008326  (-0.044568 -0.049203 -0.062602)
 26:    858.67   0.005002   25.28  0.001818  ( 0.021472  0.017758 -0.032274)
 27:    990.82   0.023846  120.51  0.007511  ( 0.044084  0.050098  0.055293)
 28:    996.99   0.001634    8.26  0.000512  (-0.006371  0.001748  0.021631)
 29:   1001.28   0.002233   11.28  0.000696  (-0.008153 -0.012754 -0.021606)
 30:   1019.07   0.000209    1.05  0.000064  (-0.005048 -0.005912 -0.001850)
 31:   1026.51   0.003433   17.35  0.001044  ( 0.023300  0.022330  0.001510)
 32:   1139.28   0.018157   91.76  0.004973  (-0.035203 -0.040765 -0.045524)
 33:   1156.28   0.003313   16.74  0.000894  (-0.001078 -0.027271 -0.012215)
 34:   1215.53   0.042863  216.61  0.011004  (-0.050749 -0.056038 -0.072722)
 35:   1250.88   0.046469  234.83  0.011593  ( 0.049593  0.060496  0.073983)
 36:   1305.11   0.006982   35.28  0.001669  ( 0.022562  0.011519  0.032058)
 37:   1356.32   0.030746  155.38  0.007074  (-0.015941 -0.065656 -0.050092)
 38:   1383.02   0.015192   76.77  0.003428  ( 0.033095  0.028512  0.038983)
 39:   1388.90   0.002663   13.46  0.000598  ( 0.011232  0.008671  0.019924)
 40:   1426.96   0.007632   38.57  0.001669  ( 0.009679 -0.038758  0.008553)
 41:   1441.99   0.002341   11.83  0.000507  ( 0.020434 -0.003763 -0.008654)
 42:   1473.43   0.008164   41.26  0.001729  ( 0.018291  0.036263  0.008918)
 43:   1488.72   0.019488   98.48  0.004085  ( 0.011194  0.043899  0.045084)
 44:   1500.71   0.022098  111.68  0.004595  (-0.033802 -0.028284 -0.051504)
 45:   1541.64   0.031726  160.33  0.006422  ( 0.004167 -0.067910  0.042345)
 46:   1647.20   0.197841  999.81  0.037481  (-0.093581 -0.105695 -0.132485)
 47:   2996.03   0.066009  333.58  0.006875  ( 0.038967  0.045921  0.056993)
 48:   3038.26   0.002321   11.73  0.000238  ( 0.005144  0.007336  0.012574)
 49:   3143.65   0.011294   57.07  0.001121  ( 0.018070  0.014248  0.024323)
 50:   3197.91   0.000278    1.41  0.000027  (-0.003169 -0.002587 -0.003230)
 51:   3203.19   0.000531    2.68  0.000052  ( 0.003374  0.003919  0.004997)
 52:   3223.81   0.001935    9.78  0.000187  (-0.006060  0.012217  0.001130)
 53:   3223.99   0.001215    6.14  0.000118  ( 0.007869 -0.004175  0.006181)

--------------------------
THERMOCHEMISTRY AT 298.15K
--------------------------

Temperature         ... 298.15 K
Pressure            ... 1.00 atm
Total Mass          ... 138.15 AMU

Throughout the following assumptions are being made:
  (1) The electronic state is orbitally nondegenerate
  (2) There are no thermally accessible electronically excited states
  (3) Hindered rotations indicated by low frequency modes are not
      treated as such but are treated as vibrations and this may
      cause some error
  (4) All equations used are the standard statistical mechanics
      equations for an ideal gas
  (5) All vibrations are strictly harmonic

freq.       3.86  E(vib)   ...       0.59
freq.      14.06  E(vib)   ...       0.57
freq.      67.85  E(vib)   ...       0.50
freq.      91.82  E(vib)   ...       0.47
freq.     194.39  E(vib)   ...       0.36
freq.     235.30  E(vib)   ...       0.32
freq.     344.67  E(vib)   ...       0.23
freq.     350.88  E(vib)   ...       0.23
freq.     386.19  E(vib)   ...       0.20
freq.     419.40  E(vib)   ...       0.18
freq.     538.59  E(vib)   ...       0.12
freq.     588.53  E(vib)   ...       0.10
freq.     614.18  E(vib)   ...       0.10
freq.     689.47  E(vib)   ...       0.07
freq.     752.46  E(vib)   ...       0.06
freq.     785.15  E(vib)   ...       0.05
freq.     819.97  E(vib)   ...       0.05
freq.     839.12  E(vib)   ...       0.04
freq.     858.67  E(vib)   ...       0.04
freq.     990.82  E(vib)   ...       0.02
freq.     996.99  E(vib)   ...       0.02
freq.    1001.28  E(vib)   ...       0.02
freq.    1019.07  E(vib)   ...       0.02
freq.    1026.51  E(vib)   ...       0.02
freq.    1139.28  E(vib)   ...       0.01
freq.    1156.28  E(vib)   ...       0.01
freq.    1215.53  E(vib)   ...       0.01
freq.    1250.88  E(vib)   ...       0.01
freq.    1305.11  E(vib)   ...       0.01
freq.    1356.32  E(vib)   ...       0.01
freq.    1383.02  E(vib)   ...       0.01
freq.    1388.90  E(vib)   ...       0.00
freq.    1426.96  E(vib)   ...       0.00
freq.    1441.99  E(vib)   ...       0.00
freq.    1473.43  E(vib)   ...       0.00
freq.    1488.72  E(vib)   ...       0.00
freq.    1500.71  E(vib)   ...       0.00
freq.    1541.64  E(vib)   ...       0.00
freq.    1647.20  E(vib)   ...       0.00
freq.    2996.03  E(vib)   ...       0.00
freq.    3038.26  E(vib)   ...       0.00
freq.    3143.65  E(vib)   ...       0.00
freq.    3197.91  E(vib)   ...       0.00
freq.    3203.19  E(vib)   ...       0.00
freq.    3223.81  E(vib)   ...       0.00
freq.    3223.99  E(vib)   ...       0.00

------------
INNER ENERGY
------------

The inner energy is: U= E(el) + E(ZPE) + E(vib) + E(rot) + E(trans)
    E(el)   - is the total energy from the electronic structure calculation
              = E(kin-el) + E(nuc-el) + E(el-el) + E(nuc-nuc)
    E(ZPE)  - the the zero temperature vibrational energy from the frequency calculation
    E(vib)  - the the finite temperature correction to E(ZPE) due to population
              of excited vibrational states
    E(rot)  - is the rotational thermal energy
    E(trans)- is the translational thermal energy

Summary of contributions to the inner energy U:
Electronic energy                ...   -476.40281848 Eh
Zero point energy                ...      0.12842491 Eh      80.59 kcal/mol
Thermal vibrational correction   ...      0.00714898 Eh       4.49 kcal/mol
Thermal rotational correction    ...      0.00141627 Eh       0.89 kcal/mol
Thermal translational correction ...      0.00141627 Eh       0.89 kcal/mol
-----------------------------------------------------------------------
Total thermal energy                   -476.26441205 Eh

Summary of corrections to the electronic energy:
(perhaps to be used in another calculation)
Total thermal correction                  0.00998152 Eh       6.26 kcal/mol
Non-thermal (ZPE) correction              0.12842491 Eh      80.59 kcal/mol
-----------------------------------------------------------------------
Total correction                          0.13840644 Eh      86.85 kcal/mol

--------
ENTHALPY
--------

The enthalpy is H = U + kB*T
                kB is Boltzmann's constant
Total free energy                 ...   -476.26441205 Eh
Thermal Enthalpy correction       ...      0.00094421 Eh       0.59 kcal/mol
-----------------------------------------------------------------------
Total Enthalpy                    ...   -476.26346784 Eh

Note: Only C1 symmetry has been detected, increase convergence thresholds
      if your molecule has a higher symmetry. Symmetry factor of 1.0 is
      used for the rotational entropy correction.

Note: Rotational entropy computed according to Herzberg
Infrared and Raman Spectra, Chapter V,1, Van Nostrand Reinhold, 1945
Point Group:  C1, Symmetry Number:   1
Rotational constants in cm-1:     0.124622     0.021900     0.019344

Vibrational entropy computed according to the QRRHO of S. Grimme
Chem.Eur.J. 2012 18 9955

-------
ENTROPY
-------

The entropy contributions are T*S = T*(S(el)+S(vib)+S(rot)+S(trans))
     S(el)   - electronic entropy
     S(vib)  - vibrational entropy
     S(rot)  - rotational entropy
     S(trans)- translational entropy
The entropies will be listed as multiplied by the temperature to get
units of energy

Electronic entropy                ...      0.00000000 Eh      0.00 kcal/mol
Vibrational entropy               ...      0.01397868 Eh      8.77 kcal/mol
Rotational entropy                ...      0.01416047 Eh      8.89 kcal/mol
Translational entropy             ...      0.01932890 Eh     12.13 kcal/mol
-----------------------------------------------------------------------
Final entropy term                ...      0.04746805 Eh     29.79 kcal/mol

In case the symmetry of your molecule has not been determined correctly
or in case you have a reason to use a different symmetry number we print
out the resulting rotational entropy values for sn=1,12 :
 --------------------------------------------------------
|  sn= 1 | S(rot)=       0.01416047 Eh      8.89 kcal/mol|
|  sn= 2 | S(rot)=       0.01350602 Eh      8.48 kcal/mol|
|  sn= 3 | S(rot)=       0.01312318 Eh      8.23 kcal/mol|
|  sn= 4 | S(rot)=       0.01285156 Eh      8.06 kcal/mol|
|  sn= 5 | S(rot)=       0.01264087 Eh      7.93 kcal/mol|
|  sn= 6 | S(rot)=       0.01246873 Eh      7.82 kcal/mol|
|  sn= 7 | S(rot)=       0.01232318 Eh      7.73 kcal/mol|
|  sn= 8 | S(rot)=       0.01219710 Eh      7.65 kcal/mol|
|  sn= 9 | S(rot)=       0.01208589 Eh      7.58 kcal/mol|
|  sn=10 | S(rot)=       0.01198641 Eh      7.52 kcal/mol|
|  sn=11 | S(rot)=       0.01189642 Eh      7.47 kcal/mol|
|  sn=12 | S(rot)=       0.01181427 Eh      7.41 kcal/mol|
 --------------------------------------------------------

-------------------
GIBBS FREE ENERGY

                             ****ORCA TERMINATED NORMALLY****
TOTAL RUN TIME: 0 days 23 hours 59 minutes 7 seconds 786 msec
