                         Program Version 5.0.4 -  RELEASE  -
|  1> !B3LYP DEF2-SVP SP
|  2>
|  3> * xyz 0 1
|  4>   O   -0.16407408048027     -0.03241814242288      0.00000000000000
|  5>   H   -0.60883288408587      0.82608926299001      0.00000000000000
|  6>   H   0.77290696456613      0.20632887943287      0.00000000000000
|  7> **                         ****END OF INPUT****

CARTESIAN COORDINATES (ANGSTROEM)
---------------------------------
  O     -0.164074   -0.032418    0.000000
  H     -0.608833    0.826089    0.000000
  H      0.772907    0.206329    0.000000

 Total Charge           Charge          ....    0
 Multiplicity           Mult            ....    1
 Number of Electrons    NEL             ....   10
 Basis Dimension        Dim             ....   24

ORBITAL ENERGIES
----------------

  NO   OCC          E(Eh)            E(eV)
   0   2.0000     -19.116360      -520.1826
   1   2.0000      -0.976203       -26.5638
   2   2.0000      -0.508088       -13.8258
   3   2.0000      -0.364421        -9.9164
   4   2.0000      -0.288165        -7.8414
   5   0.0000       0.047709         1.2982
   6   0.0000       0.126632         3.4458
   7   0.0000       0.558338        15.1931
   8   0.0000       0.623813        16.9748
   9   0.0000       0.920605        25.0509

MULLIKEN ATOMIC CHARGES
-----------------------
   0 O :   -0.293834
   1 H :    0.146907
   2 H :    0.146926
Sum of atomic charges:    0.0000000

LOEWDIN ATOMIC CHARGES
----------------------
   0 O :   -0.150120
   1 H :    0.075047
   2 H :    0.075073

  Mayer bond orders larger than 0.100000
B(  0-O ,  1-H ) :   1.0082 B(  0-O ,  2-H ) :   1.0082

FINAL SINGLE POINT ENERGY       -76.321272260036

DIPOLE MOMENT
-------------
                                X             Y             Z
Electronic contribution:     -0.08695      -0.19373      -0.00000
Nuclear contribution   :      0.40971       0.91331       0.00000
                        -----------------------------------------
Total Dipole Moment    :      0.32276       0.71958      -0.00000
                        -----------------------------------------
Magnitude (a.u.)       :      0.78865
Magnitude (Debye)      :      2.00460

Rotational constants in cm-1:    26.041405    14.584918     9.348908
Rotational constants in MHz : 780701.694466 437244.838055 280273.211386

                             ****ORCA TERMINATED NORMALLY****
TOTAL RUN TIME: 0 days 0 hours 0 minutes 12 seconds 750 msec
