                         Program Version 5.0.4 -  RELEASE  -
|  1> !B3LYP DEF2-SVP OPT FREQ D4 SOSCF
|  2>
|  3> %geom
|  4> convergence tight
|  5> maxIter 1000
|  6> end
|  7>
|  8> * xyz 1 1
|  9>   C   -2.94949444672740      2.75540253310251     -1.20313399104727
| 10>   C   -4.11441760880234      2.24618390214095     -0.61287909635821
| 11>   C   -4.48838283163972      0.92562818899361     -0.85418234241413
| 12>   C   -3.74305696308190      0.07182122720865     -1.66899492009724
| 13>   C   -2.58541216103812      0.57800359881357     -2.25609692052704
| 14>   C   -2.19561902632856      1.90152441796456     -2.02451332321466
| 15>   C   -2.53183969744997      4.18424632397931     -0.96242443831896
| 16>   H   -4.07662884147365     -0.95241847293368     -1.82663847001818
| 17>   H   -4.73898395383005      2.85979091797571      0.03562031155203
| 18>   H   -1.54315458457058      4.39327960345921     -1.39550548733829
| 19>   H   -2.48763875351146      4.41046393842808      0.11484074161747
| 20>   H   -3.25174090404018      4.88812665417048     -1.41331423966247
| 21>   H   -1.28261419765769      2.28056166525433     -2.49208751924821
| 22>   H   -1.97795401070721     -0.06243690901903     -2.89903338394653
| 23>   N   -5.72062921113976      0.41160650815684     -0.22483594198116
| 24>   O   -6.02724137571748     -0.75166603319536     -0.44042802532830
| 25>   O   -6.36745626184255      1.17633475534410      0.47645038543754
| 26>   H   -13.69998517044117     -3.39245281984390      3.20861666089367
| 27> **                         ****END OF INPUT****
 Total Charge           Charge          ....    1
 Multiplicity           Mult            ....    1
 Number of Electrons    NEL             ....   72
Dispersion correction           -0.026459925
FINAL SINGLE POINT ENERGY      -475.486139449679
Dispersion correction            ... Starting D4
Dispersion correction           -0.026463371
FINAL SINGLE POINT ENERGY      -475.486237580387
Dispersion correction            ... Starting D4
Dispersion correction           -0.026465040
FINAL SINGLE POINT ENERGY      -475.486334199479
Dispersion correction            ... Starting D4
FINAL SINGLE POINT ENERGY      -475.486431215151
FINAL SINGLE POINT ENERGY      -475.486528659060
FINAL SINGLE POINT ENERGY      -475.486627151179
FINAL SINGLE POINT ENERGY      -475.486726839838
FINAL SINGLE POINT ENERGY      -475.486829107692
FINAL SINGLE POINT ENERGY      -475.486933972137
FINAL SINGLE POINT ENERGY      -475.487043600988
FINAL SINGLE POINT ENERGY      -475.598850022710
FINAL SINGLE POINT ENERGY      -475.598866865087
FINAL SINGLE POINT ENERGY      -475.598879846451
FINAL SINGLE POINT ENERGY      -475.598895976807
FINAL SINGLE POINT ENERGY      -475.598911816010
FINAL SINGLE POINT ENERGY      -475.598927728158
FINAL SINGLE POINT ENERGY      -475.598943180972
Dispersion correction           -0.026445529
FINAL SINGLE POINT ENERGY      -475.598958890993
Dispersion correction            ... Starting D4
Dispersion correction           -0.026445578
FINAL SINGLE POINT ENERGY      -475.598958022841
Dispersion correction            ... Starting D4
                    ***********************HURRAY********************

CARTESIAN COORDINATES (ANGSTROEM)
---------------------------------
  C     -2.731689    2.843192   -1.310702
  C     -3.877906    2.391285   -0.586461
  C     -4.324034    1.102193   -0.773127
  C     -3.695350    0.208415   -1.661358
  C     -2.562977    0.649738   -2.380395
  C     -2.089188    1.939792   -2.206001
  C     -2.254662    4.237972   -1.141861
  H     -4.094672   -0.800635   -1.774605
  H     -4.408582    3.051682    0.101572
  H     -1.269641    4.407980   -1.596173
  H     -2.234393    4.527351   -0.076319
  H     -2.973781    4.938011   -1.617279
  H     -1.210431    2.280344   -2.758185
  H     -2.067089   -0.033830   -3.072575
  N     -5.485480    0.618896    0.010803
  O     -5.688332   -0.583315   -0.011502
  O     -6.132846    1.445623    0.618783
  H    -16.681197   -5.300693    3.796844

 Multiplicity           Mult            ....    1
 Number of Electrons    NEL             ....   72
 Basis Dimension        Dim             ....  180

ORBITAL ENERGIES
----------------

  NO   OCC          E(Eh)            E(eV)
   0   2.0000     -19.292713      -524.9814
   1   2.0000     -19.290313      -524.9161
   2   2.0000     -14.687015      -399.6540
   3   2.0000     -10.396655      -282.9074
   4   2.0000     -10.392764      -282.8015
   5   2.0000     -10.383286      -282.5436
   6   2.0000     -10.369692      -282.1737
   7   2.0000     -10.363760      -282.0122
   8   2.0000     -10.363337      -282.0007
   9   2.0000     -10.335428      -281.2413
  10   2.0000      -1.352396       -36.8006
  11   2.0000      -1.180599       -32.1257
  12   2.0000      -1.034359       -28.1463
  13   2.0000      -0.952541       -25.9200
  14   2.0000      -0.927727       -25.2447
  15   2.0000      -0.845820       -23.0159
  16   2.0000      -0.834707       -22.7135
  17   2.0000      -0.761719       -20.7274
  18   2.0000      -0.718150       -19.5419
  19   2.0000      -0.685701       -18.6589
  20   2.0000      -0.669234       -18.2108
  21   2.0000      -0.649524       -17.6744
  22   2.0000      -0.645553       -17.5664
  23   2.0000      -0.619798       -16.8656
  24   2.0000      -0.600718       -16.3464
  25   2.0000      -0.579327       -15.7643
  26   2.0000      -0.572672       -15.5832
  27   2.0000      -0.541396       -14.7321
  28   2.0000      -0.528374       -14.3778
  29   2.0000      -0.519902       -14.1472
  30   2.0000      -0.513375       -13.9696
  31   2.0000      -0.437938       -11.9169
  32   2.0000      -0.435118       -11.8402
  33   2.0000      -0.432770       -11.7763
  34   2.0000      -0.420018       -11.4293
  35   2.0000      -0.400481       -10.8976
  36   0.0000      -0.393811       -10.7161
  37   0.0000      -0.219245        -5.9660
  38   0.0000      -0.183664        -4.9977
  39   0.0000      -0.140795        -3.8312
  40   0.0000      -0.064458        -1.7540

MULLIKEN ATOMIC CHARGES
-----------------------
   0 C :   -0.052361
   1 C :    0.004603
   2 C :    0.175490
   3 C :    0.059673
   4 C :    0.043289
   5 C :    0.068217
   6 C :    0.065567
   7 H :    0.064850
   8 H :    0.045451
   9 H :    0.062208
  10 H :    0.079168
  11 H :    0.094566
  12 H :    0.039503
  13 H :    0.054485
  14 N :    0.238497
  15 O :   -0.187527
  16 O :   -0.187626
  17 H :    0.331946
Sum of atomic charges:    1.0000000

LOEWDIN ATOMIC CHARGES
----------------------
   0 C :    0.080732
   1 C :    0.042729
   2 C :   -0.002467
   3 C :    0.098654
   4 C :    0.030656
   5 C :    0.033513
   6 C :   -0.026861
   7 H :    0.064198
   8 H :    0.059870
   9 H :    0.052265
  10 H :    0.068149
  11 H :    0.082024
  12 H :    0.055021
  13 H :    0.059746
  14 N :    0.275923
  15 O :   -0.151608
  16 O :   -0.154488
  17 H :    0.331946

  Mayer bond orders larger than 0.100000
B(  0-C ,  1-C ) :   1.1744 B(  0-C ,  5-C ) :   1.2592 B(  0-C ,  6-C ) :   1.1052
B(  0-C , 17-H ) :   0.2324 B(  1-C ,  2-C ) :   1.4578 B(  1-C ,  8-H ) :   0.9863
B(  1-C , 17-H ) :   0.1011 B(  2-C ,  3-C ) :   1.2907 B(  2-C , 14-N ) :   0.8393
B(  3-C ,  4-C ) :   1.2392 B(  3-C ,  7-H ) :   0.9782 B(  3-C , 17-H ) :   0.2397
B(  4-C ,  5-C ) :   1.4437 B(  4-C , 13-H ) :   0.9818 B(  5-C , 12-H ) :   0.9887
B(  6-C ,  9-H ) :   0.9545 B(  6-C , 10-H ) :   0.9293 B(  6-C , 11-H ) :   0.9073
B( 14-N , 15-O ) :   1.5362 B( 14-N , 16-O ) :   1.5696 B( 15-O , 16-O ) :   0.2892

Dispersion correction           -0.026445620
FINAL SINGLE POINT ENERGY      -475.598957936813

DIPOLE MOMENT
-------------
                                X             Y             Z
Electronic contribution:     -3.26199      -4.53588       1.65646
Nuclear contribution   :     -2.42624       1.56588      -0.11344
                        -----------------------------------------
Total Dipole Moment    :     -5.68823      -2.97000       1.54301
                        -----------------------------------------
Magnitude (a.u.)       :      6.59983
Magnitude (Debye)      :     16.77544

Dispersion correction in the Hessian             ... Starting D4

VIBRATIONAL FREQUENCIES
-----------------------

Scaling factor for frequencies =  1.000000000  (already applied!)

   0:         0.00 cm**-1
   1:         0.00 cm**-1
   2:         0.00 cm**-1
   3:         0.00 cm**-1
   4:         0.00 cm**-1
   5:         0.00 cm**-1
   6:        -3.16 cm**-1 ***imaginary mode***
   7:        -2.86 cm**-1 ***imaginary mode***
   8:        11.05 cm**-1
   9:        17.48 cm**-1
  10:        41.37 cm**-1
  11:       150.32 cm**-1
  12:       179.47 cm**-1
  13:       208.46 cm**-1
  14:       352.18 cm**-1
  15:       385.15 cm**-1
  16:       402.99 cm**-1
  17:       467.07 cm**-1
  18:       511.96 cm**-1
  19:       553.46 cm**-1
  20:       622.57 cm**-1
  21:       638.79 cm**-1
  22:       735.99 cm**-1
  23:       787.96 cm**-1
  24:       802.35 cm**-1
  25:       910.48 cm**-1
  26:       925.11 cm**-1
  27:       949.57 cm**-1
  28:       991.04 cm**-1
  29:      1007.29 cm**-1
  30:      1009.40 cm**-1
  31:      1033.90 cm**-1
  32:      1079.60 cm**-1
  33:      1098.45 cm**-1
  34:      1179.87 cm**-1
  35:      1252.17 cm**-1
  36:      1290.59 cm**-1
  37:      1331.60 cm**-1
  38:      1365.66 cm**-1
  39:      1397.57 cm**-1
  40:      1410.82 cm**-1
  41:      1431.38 cm**-1
  42:      1449.68 cm**-1
  43:      1477.55 cm**-1
  44:      1520.04 cm**-1
  45:      1660.06 cm**-1
  46:      1686.54 cm**-1
  47:      2979.44 cm**-1
  48:      3057.07 cm**-1
  49:      3152.11 cm**-1
  50:      3204.08 cm**-1
  51:      3216.79 cm**-1
  52:      3220.55 cm**-1
  53:      3232.75 cm**-1

IR SPECTRUM
-----------

 Mode   freq       eps      Int      T**2         TX        TY        TZ
       cm**-1   L/(mol*cm) km/mol    a.u.
----------------------------------------------------------------------------
  8:     11.05   0.022140  111.88  0.625361  ( 0.612307  0.318705 -0.385834)
  9:     17.48   0.000709    3.58  0.012652  (-0.019237  0.000460 -0.110822)
 10:     41.37   0.000256    1.30  0.001933  (-0.003200  0.010258 -0.042637)
 11:    150.32   0.000104    0.53  0.000216  (-0.009181  0.005113 -0.010291)
 12:    179.47   0.000185    0.94  0.000322  (-0.010633  0.010420 -0.010024)
 13:    208.46   0.000731    3.69  0.001094  (-0.015403 -0.026092 -0.013279)
 14:    352.18   0.000118    0.59  0.000104  ( 0.003304 -0.002471 -0.009339)
 15:    385.15   0.003035   15.34  0.002459  ( 0.039300  0.023641 -0.018862)
 16:    402.99   0.000317    1.60  0.000245  (-0.013529  0.004974  0.006126)
 17:    467.07   0.001437    7.26  0.000960  (-0.020055 -0.009937  0.021430)
 18:    511.96   0.006848   34.61  0.004174  ( 0.056387  0.022279 -0.022321)
 19:    553.46   0.002681   13.55  0.001512  (-0.024477 -0.029890  0.004392)
 20:    622.57   0.002985   15.08  0.001496  (-0.014581  0.017008 -0.031532)
 21:    638.79   0.000265    1.34  0.000129  ( 0.011056  0.002608  0.000454)
 22:    735.99   0.004955   25.04  0.002101  (-0.025967  0.010685 -0.036228)
 23:    787.96   0.009150   46.24  0.003624  ( 0.056669  0.020021 -0.003413)
 24:    802.35   0.003046   15.39  0.001185  ( 0.019639  0.017449 -0.022240)
 25:    910.48   0.001175    5.94  0.000403  ( 0.003505  0.019640  0.002193)
 26:    925.11   0.003877   19.59  0.001308  (-0.030766 -0.014512  0.012267)
 27:    949.57   0.000397    2.00  0.000130  (-0.000516  0.006632 -0.009280)
 28:    991.04   0.044987  227.35  0.014166  ( 0.093900  0.061968 -0.038841)
 29:   1007.29   0.009289   46.94  0.002878  ( 0.027124  0.033406 -0.032031)
 30:   1009.40   0.001856    9.38  0.000574  (-0.021890  0.009335 -0.002754)
 31:   1033.90   0.000230    1.16  0.000069  (-0.003808 -0.005297  0.005185)
 32:   1079.60   0.000326    1.65  0.000094  (-0.002907 -0.008732 -0.003089)
 33:   1098.45   0.001600    8.09  0.000455  (-0.003344 -0.019699 -0.007444)
 34:   1179.87   0.012260   61.96  0.003243  ( 0.047774  0.021082 -0.022713)
 35:   1252.17   0.072398  365.87  0.018043  ( 0.110165  0.060354 -0.047580)
 36:   1290.59   0.028773  145.41  0.006957  ( 0.053695  0.063017 -0.010145)
 37:   1331.60   0.024854  125.60  0.005825  ( 0.042093  0.063119 -0.008295)
 38:   1365.66   0.021345  107.87  0.004878  ( 0.037652  0.055135 -0.020496)
 39:   1397.57   0.000830    4.19  0.000185  (-0.000042  0.001475 -0.013530)
 40:   1410.82   0.001531    7.74  0.000339  ( 0.004676  0.003137  0.017522)
 41:   1431.38   0.001313    6.63  0.000286  (-0.007618 -0.014755  0.003232)
 42:   1449.68   0.016002   80.87  0.003445  (-0.032285 -0.047218  0.013147)
 43:   1477.55   0.024013  121.35  0.005072  ( 0.040009  0.058915 -0.000267)
 44:   1520.04   0.001341    6.78  0.000275  (-0.009070  0.007498  0.011699)
 45:   1660.06   0.211840  1070.55  0.039822  ( 0.136471  0.140563 -0.037949)
 46:   1686.54   0.092972  469.84  0.017203  (-0.115395 -0.007137  0.061934)
 47:   2979.44   0.087513  442.26  0.009166  (-0.066025 -0.065149  0.023713)
 48:   3057.07   0.001267    6.40  0.000129  (-0.010064 -0.004696 -0.002447)
 49:   3152.11   0.009907   50.07  0.000981  ( 0.022646  0.020580 -0.006668)
 50:   3204.08   0.000184    0.93  0.000018  (-0.002882 -0.003007  0.000758)
 51:   3216.79   0.000279    1.41  0.000027  ( 0.000824  0.004340  0.002744)
 52:   3220.55   0.001844    9.32  0.000179  ( 0.004944 -0.009179 -0.008364)
 53:   3232.75   0.002071   10.47  0.000200  ( 0.006275 -0.010743 -0.006716)

--------------------------
THERMOCHEMISTRY AT 298.15K
--------------------------

Temperature         ... 298.15 K
Pressure            ... 1.00 atm
Total Mass          ... 138.15 AMU

Throughout the following assumptions are being made:
  (1) The electronic state is orbitally nondegenerate
  (2) There are no thermally accessible electronically excited states
  (3) Hindered rotations indicated by low frequency modes are not
      treated as such but are treated as vibrations and this may
      cause some error
  (4) All equations used are the standard statistical mechanics
      equations for an ideal gas
  (5) All vibrations are strictly harmonic

freq.      11.05  E(vib)   ...       0.58
freq.      17.48  E(vib)   ...       0.57
freq.      41.37  E(vib)   ...       0.54
freq.     150.32  E(vib)   ...       0.40
freq.     179.47  E(vib)   ...       0.37
freq.     208.46  E(vib)   ...       0.34
freq.     352.18  E(vib)   ...       0.23
freq.     385.15  E(vib)   ...       0.20
freq.     402.99  E(vib)   ...       0.19
freq.     467.07  E(vib)   ...       0.16
freq.     511.96  E(vib)   ...       0.14
freq.     553.46  E(vib)   ...       0.12
freq.     622.57  E(vib)   ...       0.09
freq.     638.79  E(vib)   ...       0.09
freq.     735.99  E(vib)   ...       0.06
freq.     787.96  E(vib)   ...       0.05
freq.     802.35  E(vib)   ...       0.05
freq.     910.48  E(vib)   ...       0.03
freq.     925.11  E(vib)   ...       0.03
freq.     949.57  E(vib)   ...       0.03
freq.     991.04  E(vib)   ...       0.02
freq.    1007.29  E(vib)   ...       0.02
freq.    1009.40  E(vib)   ...       0.02
freq.    1033.90  E(vib)   ...       0.02
freq.    1079.60  E(vib)   ...       0.02
freq.    1098.45  E(vib)   ...       0.02
freq.    1179.87  E(vib)   ...       0.01
freq.    1252.17  E(vib)   ...       0.01
freq.    1290.59  E(vib)   ...       0.01
freq.    1331.60  E(vib)   ...       0.01
freq.    1365.66  E(vib)   ...       0.01
freq.    1397.57  E(vib)   ...       0.00
freq.    1410.82  E(vib)   ...       0.00
freq.    1431.38  E(vib)   ...       0.00
freq.    1449.68  E(vib)   ...       0.00
freq.    1477.55  E(vib)   ...       0.00
freq.    1520.04  E(vib)   ...       0.00
freq.    1660.06  E(vib)   ...       0.00
freq.    1686.54  E(vib)   ...       0.00
freq.    2979.44  E(vib)   ...       0.00
freq.    3057.07  E(vib)   ...       0.00
freq.    3152.11  E(vib)   ...       0.00
freq.    3204.08  E(vib)   ...       0.00
freq.    3216.79  E(vib)   ...       0.00
freq.    3220.55  E(vib)   ...       0.00
freq.    3232.75  E(vib)   ...       0.00

------------
INNER ENERGY
------------

The inner energy is: U= E(el) + E(ZPE) + E(vib) + E(rot) + E(trans)
    E(el)   - is the total energy from the electronic structure calculation
              = E(kin-el) + E(nuc-el) + E(el-el) + E(nuc-nuc)
    E(ZPE)  - the the zero temperature vibrational energy from the frequency calculation
    E(vib)  - the the finite temperature correction to E(ZPE) due to population
              of excited vibrational states
    E(rot)  - is the rotational thermal energy
    E(trans)- is the translational thermal energy

Summary of contributions to the inner energy U:
Electronic energy                ...   -475.59895794 Eh
Zero point energy                ...      0.12846535 Eh      80.61 kcal/mol
Thermal vibrational correction   ...      0.00709324 Eh       4.45 kcal/mol
Thermal rotational correction    ...      0.00141627 Eh       0.89 kcal/mol
Thermal translational correction ...      0.00141627 Eh       0.89 kcal/mol
-----------------------------------------------------------------------
Total thermal energy                   -475.46056680 Eh

Summary of corrections to the electronic energy:
(perhaps to be used in another calculation)
Total thermal correction                  0.00992578 Eh       6.23 kcal/mol
Non-thermal (ZPE) correction              0.12846535 Eh      80.61 kcal/mol
-----------------------------------------------------------------------
Total correction                          0.13839113 Eh      86.84 kcal/mol

--------
ENTHALPY
--------

The enthalpy is H = U + kB*T
                kB is Boltzmann's constant
Total free energy                 ...   -475.46056680 Eh
Thermal Enthalpy correction       ...      0.00094421 Eh       0.59 kcal/mol
-----------------------------------------------------------------------
Total Enthalpy                    ...   -475.45962259 Eh

Note: Only C1 symmetry has been detected, increase convergence thresholds
      if your molecule has a higher symmetry. Symmetry factor of 1.0 is
      used for the rotational entropy correction.

Note: Rotational entropy computed according to Herzberg
Infrared and Raman Spectra, Chapter V,1, Van Nostrand Reinhold, 1945
Point Group:  C1, Symmetry Number:   1
Rotational constants in cm-1:     0.086116     0.022615     0.018148

Vibrational entropy computed according to the QRRHO of S. Grimme
Chem.Eur.J. 2012 18 9955

-------
ENTROPY
-------

The entropy contributions are T*S = T*(S(el)+S(vib)+S(rot)+S(trans))
     S(el)   - electronic entropy
     S(vib)  - vibrational entropy
     S(rot)  - rotational entropy
     S(trans)- translational entropy
The entropies will be listed as multiplied by the temperature to get
units of energy

Electronic entropy                ...      0.00000000 Eh      0.00 kcal/mol
Vibrational entropy               ...      0.01334482 Eh      8.37 kcal/mol
Rotational entropy                ...      0.01434995 Eh      9.00 kcal/mol
Translational entropy             ...      0.01932890 Eh     12.13 kcal/mol
-----------------------------------------------------------------------
Final entropy term                ...      0.04702366 Eh     29.51 kcal/mol

In case the symmetry of your molecule has not been determined correctly
or in case you have a reason to use a different symmetry number we print
out the resulting rotational entropy values for sn=1,12 :
 --------------------------------------------------------
|  sn= 1 | S(rot)=       0.01434995 Eh      9.00 kcal/mol|
|  sn= 2 | S(rot)=       0.01369549 Eh      8.59 kcal/mol|
|  sn= 3 | S(rot)=       0.01331266 Eh      8.35 kcal/mol|
|  sn= 4 | S(rot)=       0.01304104 Eh      8.18 kcal/mol|
|  sn= 5 | S(rot)=       0.01283035 Eh      8.05 kcal/mol|
|  sn= 6 | S(rot)=       0.01265820 Eh      7.94 kcal/mol|
|  sn= 7 | S(rot)=       0.01251266 Eh      7.85 kcal/mol|
|  sn= 8 | S(rot)=       0.01238658 Eh      7.77 kcal/mol|
|  sn= 9 | S(rot)=       0.01227537 Eh      7.70 kcal/mol|
|  sn=10 | S(rot)=       0.01217589 Eh      7.64 kcal/mol|
|  sn=11 | S(rot)=       0.01208590 Eh      7.58 kcal/mol|
|  sn=12 | S(rot)=       0.01200375 Eh      7.53 kcal/mol|
 --------------------------------------------------------

-------------------
GIBBS FREE ENERGY

                             ****ORCA TERMINATED NORMALLY****
TOTAL RUN TIME: 2 days 1 hours 43 minutes 5 seconds 783 msec
