                         Program Version 5.0.4 -  RELEASE  -
|  1> # input to generate an atomic fitting density for I
|  2> # this file is used internally by ORCA
|  3> #
|  4> # atomic ground state (S=2): 1s2 2s2 2p6 3s2 3p6 4s2 3d10 4p6 5s2 4d10 5p5
|  5> #
|  6> ! RHF AllowRHF def2-SVP def2/J  NoMulliken NoLoewdin NoMayer NoPrintMOs
|  7>
|  8> %output print[p_atomdensfit] 2 end
|  9>
| 10> %scf
| 11>   guess hcore
| 12>   maxiter 1000
| 13>   maxdisk 500000
| 14>   SCFMode Conventional
| 15>   lshift 1.000000
| 16>   hftyp rohf
| 17>   rohf_case sahf
| 18>   rohf_numop   2
| 19>   rohf_norb[1] 3
| 20>   rohf_nel[1]  5
| 21> end
| 22>
| 23> %basis
| 24>   NewECP 53
| 25>     N_core 28
| 26>     lmax f
| 27>     s 7
| 28>       1      40.0158350000     49.9942930000  2
| 29>       2      17.4297470000    281.0253170000  2
| 30>       3       9.0054840000     61.5733260000  2
| 31>       4      19.4586090000     21.8420400000  2
| 32>       5      19.3492600000     28.4681910000  2
| 33>       6       4.8237670000      0.2437130000  2
| 34>       7       4.8843150000      0.3208040000  2
| 35>     p 8
| 36>       1      15.3554660000     67.4428410000  2
| 37>       2      14.9718330000    134.8811370000  2
| 38>       3       8.9601640000     14.6750510000  2
| 39>       4       8.2590960000     29.3756660000  2
| 40>       5      19.4586090000     21.8420400000  2
| 41>       6      19.3492600000     28.4681910000  2
| 42>       7       4.8237670000      0.2437130000  2
| 43>       8       4.8843150000      0.3208040000  2
| 44>     d 10
| 45>       1      15.0689080000     35.4395290000  2
| 46>       2      14.5553220000     53.1760570000  2
| 47>       3       6.7186470000      9.0671950000  2
| 48>       4       6.4563930000     13.2069370000  2
| 49>       5       1.1917790000      0.0893350000  2
| 50>       6       1.2911570000      0.0523800000  2
| 51>       7      19.4586090000     21.8420400000  2
| 52>       8      19.3492600000     28.4681910000  2
| 53>       9       4.8237670000      0.2437130000  2
| 54>      10       4.8843150000      0.3208040000  2
| 55>     f 4
| 56>       1      19.4586090000    -21.8420400000  2
| 57>       2      19.3492600000    -28.4681910000  2
| 58>       3       4.8237670000     -0.2437130000  2
| 59>       4       4.8843150000     -0.3208040000  2
| 60>   end
| 61>   NewGTO 53
| 62>     s 6
| 63>      1     445.9048917600      0.0022025754
| 64>      2      23.3368424120     -0.1647691779
| 65>      3      19.5834461040      0.4005236426
| 66>      4       8.5112089186     -0.8303440534
| 67>      5       2.1996161861      0.9103490390
| 68>      6       1.0668970454      0.4634503367
| 69>     s 2
| 70>      1      11.7205475720     -0.0469729845
| 71>      2       1.7625986449      1.0252380966
| 72>     s 1
| 73>      1       0.2869747632      1.0000000000
| 74>     s 1
| 75>      1       0.1122760961      1.0000000000
| 76>     p 4
| 77>      1      20.4990272540      0.0845621086
| 78>      2      10.5587545760     -0.4205167918
| 79>      3       1.5015895485      0.9157047730
| 80>      4       0.6459717310      0.1839785228
| 81>     p 1
| 82>      1       3.0288656771      1.0000000000
| 83>     p 1
| 84>      1       0.3450659184      1.0000000000
| 85>     p 1
| 86>      1       0.1113451381      1.0000000000
| 87>     d 5
| 88>      1      51.2353549200      0.0041015169
| 89>      2      15.6162394820     -0.0051611250
| 90>      3       4.5266002139      0.2963519699
| 91>      4       2.0529808766      0.5199519651
| 92>      5       0.8764028162      0.3175071685
| 93>     d 1
| 94>      1       0.3090000000      1.0000000000
| 95>   end
| 96>   NewAuxGTO 53
| 97>     S 1
| 98>      1 1310.72 1.0
| 99>     S 1
|100>      1  655.36 1.0
|101>     S 1
|102>      1  327.68 1.0
|103>     S 1
|104>      1  163.84 1.0
|105>     S 1
|106>      1   81.82 1.0
|107>     S 1
|108>      1   40.96 1.0
|109>     S 1
|110>      1   20.48 1.0
|111>     S 1
|112>      1   10.24 1.0
|113>     S 1
|114>      1    5.12 1.0
|115>     S 1
|116>      1    2.56 1.0
|117>     S 1
|118>      1    1.28 1.0
|119>     S 1
|120>      1    0.64 1.0
|121>     S 1
|122>      1    0.32 1.0
|123>     S 1
|124>      1    0.16 1.0
|125>     S 1
|126>      1    0.08 1.0
|127>     S 1
|128>      1    0.04 1.0
|129>     S 1
|130>      1    0.02 1.0
|131>     S 1
|132>      1    0.01 1.0
|133>   end
|134> end
|135>
|136> * xyz 0 2
|137> 53  0.0 0.0 0.0
|138> *
|139>
|140>
|141>                          ****END OF INPUT****

CARTESIAN COORDINATES (ANGSTROEM)
---------------------------------
  I      0.000000    0.000000    0.000000

 Total Charge           Charge          ....    0
 Multiplicity           Mult            ....    2
 Number of Electrons    NEL             ....   25
 Basis Dimension        Dim             ....   26

ORBITAL ENERGIES
----------------

  NO   OCC          E(Eh)            E(eV)
   0   2.0000      -7.757921      -211.1038
   1   2.0000      -5.605857      -152.5431
   2   2.0000      -5.605857      -152.5431
   3   2.0000      -5.605857      -152.5431
   4   2.0000      -2.299820       -62.5813
   5   2.0000      -2.299820       -62.5813
   6   2.0000      -2.299820       -62.5813
   7   2.0000      -2.299820       -62.5813
   8   2.0000      -2.299820       -62.5813
   9   2.0000      -0.874792       -23.8043
  10   1.6667      -0.400329       -10.8935
  11   1.6667      -0.400329       -10.8935
  12   1.6667      -0.400329       -10.8935
  13   0.0000       0.344373         9.3709
  14   0.0000       0.494149        13.4465
  15   0.0000       0.494149        13.4465
  16   0.0000       0.494149        13.4465
  17   0.0000       0.529253        14.4017

FINAL SINGLE POINT ENERGY      -296.646254230020

DIPOLE MOMENT
-------------
                                X             Y             Z
Electronic contribution:     -0.00000      -0.00000      -0.00000
Nuclear contribution   :      0.00000       0.00000       0.00000
                        -----------------------------------------
Total Dipole Moment    :     -0.00000      -0.00000      -0.00000
                        -----------------------------------------
Magnitude (a.u.)       :      0.00000
Magnitude (Debye)      :      0.00000

Rotational constants in cm-1:     0.000000     0.000000     0.000000
Rotational constants in MHz :     0.000000     0.000000     0.000000

                             ****ORCA TERMINATED NORMALLY****
TOTAL RUN TIME: 0 days 0 hours 0 minutes 10 seconds 139 msec
