                         Program Version 5.0.4 -  RELEASE  -
|  1> !B3PW91 def2-TZVP D4
|  2>
|  3> %base "uv_vis_spectra"
|  4>
|  5> %maxcore 2000
|  6>
|  7> %tddft
|  8> nroots 150
|  9> maxdim 5
| 10> end
| 11>
| 12> %CPCM smd true
| 13> smdsolvent "water"
| 14> end
| 15>
| 16> * xyz 0 1
| 17>   I   -0.86213612938137      0.00000000000000      0.00000000000000
| 18>   I   1.86213612938137      0.00000000000000      0.00000000000000
| 19> **                         ****END OF INPUT****

CARTESIAN COORDINATES (ANGSTROEM)
---------------------------------
  I     -0.862136    0.000000    0.000000
  I      1.862136    0.000000    0.000000

 Total Charge           Charge          ....    0
 Multiplicity           Mult            ....    1
 Number of Electrons    NEL             ....   50
 Basis Dimension        Dim             ....  100

ORBITAL ENERGIES
----------------

  NO   OCC          E(Eh)            E(eV)
   0   2.0000      -6.857439      -186.6004
   1   2.0000      -6.857437      -186.6004
   2   2.0000      -4.886625      -132.9718
   3   2.0000      -4.886498      -132.9684
   4   2.0000      -4.868539      -132.4797
   5   2.0000      -4.868539      -132.4797
   6   2.0000      -4.868528      -132.4794
   7   2.0000      -4.868528      -132.4794
   8   2.0000      -1.935208       -52.6597
   9   2.0000      -1.931488       -52.5585
  10   2.0000      -1.929208       -52.4964
  11   2.0000      -1.929208       -52.4964
  12   2.0000      -1.928149       -52.4676
  13   2.0000      -1.928149       -52.4676
  14   2.0000      -1.913844       -52.0784
  15   2.0000      -1.913831       -52.0780
  16   2.0000      -1.913760       -52.0760
  17   2.0000      -1.913747       -52.0757
  18   2.0000      -0.734985       -20.0000
  19   2.0000      -0.655606       -17.8399
  20   2.0000      -0.359110        -9.7719
  21   2.0000      -0.307822        -8.3763
  22   2.0000      -0.307822        -8.3763
  23   2.0000      -0.250242        -6.8094
  24   2.0000      -0.250242        -6.8094
  25   0.0000      -0.125472        -3.4143
  26   0.0000       0.137255         3.7349
  27   0.0000       0.148356         4.0370
  28   0.0000       0.153861         4.1868
  29   0.0000       0.153861         4.1868

MULLIKEN ATOMIC CHARGES
-----------------------
   0 I :    0.000000
   1 I :   -0.000000
Sum of atomic charges:   -0.0000000

LOEWDIN ATOMIC CHARGES
----------------------
   0 I :    0.000000
   1 I :   -0.000000

  Mayer bond orders larger than 0.100000
B(  0-I ,  1-I ) :   1.1073

-----------------------------------------------------------------------------
         ABSORPTION SPECTRUM VIA TRANSITION ELECTRIC DIPOLE MOMENTS
-----------------------------------------------------------------------------
State   Energy    Wavelength  fosc         T2        TX        TY        TZ
        (cm-1)      (nm)                 (au**2)    (au)      (au)      (au)
-----------------------------------------------------------------------------
   1   18661.4    535.9   0.000883305   0.01558   0.00000   0.00717   0.12462
   2   18661.4    535.9   0.000883306   0.01558  -0.00000   0.12462  -0.00717
   3   31099.4    321.5   0.000000000   0.00000   0.00000  -0.00000   0.00000
   4   31099.4    321.5   0.000000000   0.00000  -0.00000   0.00000   0.00000
   5   54861.6    182.3   1.187966604   7.12872  -2.66997  -0.00000  -0.00000
   6   75440.3    132.6   0.000000000   0.00000  -0.00000  -0.00000  -0.00000
   7   75440.3    132.6   0.000000000   0.00000   0.00000  -0.00000  -0.00000
   8   77892.0    128.4   0.000000000   0.00000  -0.00000  -0.00000   0.00000
   9   77900.2    128.4   0.000000000   0.00000   0.00001   0.00000   0.00000
  10   78415.1    127.5   0.000000000   0.00000   0.00000   0.00000  -0.00000
  11   78924.9    126.7   0.168728897   0.70380  -0.00000  -0.04229  -0.83786
  12   78924.9    126.7   0.168728867   0.70380  -0.00000   0.83786  -0.04229
  13   82877.7    120.7   1.554539393   6.17504  -2.48496  -0.00000  -0.00000
  14   84346.1    118.6   0.000000000   0.00000   0.00001   0.00000  -0.00000
  15   84357.8    118.5   0.000000000   0.00000  -0.00000   0.00000   0.00000
  16   84955.3    117.7   0.000000000   0.00000  -0.00000   0.00000  -0.00000
  17   84955.3    117.7   0.000000000   0.00000  -0.00000   0.00000   0.00000
  18   85446.8    117.0   0.000000000   0.00000  -0.00000   0.00000  -0.00000
  19   87932.9    113.7   0.102639286   0.38427   0.00000   0.04065  -0.61856
  20   87933.0    113.7   0.102639151   0.38427   0.00000  -0.61856  -0.04065
  21   88594.7    112.9   0.000000000   0.00000  -0.00000   0.00000   0.00000
  22   88599.2    112.9   0.000000000   0.00000  -0.00000   0.00000  -0.00000
  23   89880.8    111.3   0.000000000   0.00000  -0.00000  -0.00000  -0.00000
  24   90507.7    110.5   0.000000000   0.00000   0.00000   0.00000   0.00000
  25   90507.7    110.5   0.000000000   0.00000  -0.00000   0.00000  -0.00000
  26   91501.5    109.3   0.000000000   0.00000   0.00000   0.00000   0.00000
  27   91507.5    109.3   0.000000000   0.00000  -0.00000  -0.00000   0.00000
  28   91864.6    108.9   0.000000000   0.00000  -0.00000   0.00000   0.00000
  29   91864.6    108.9   0.000000000   0.00000  -0.00000   0.00000   0.00000
  30   91990.6    108.7   0.000000000   0.00000   0.00000   0.00000   0.00000
  31   93910.9    106.5   0.000000000   0.00000   0.00003  -0.00000  -0.00000
  32   94242.2    106.1   1.853421335   6.47447  -2.54450  -0.00000   0.00000
  33   94783.0    105.5   0.000000000   0.00000  -0.00002  -0.00000  -0.00000
  34   96030.0    104.1   0.000000279   0.00000   0.00000   0.00098   0.00007
  35   96030.0    104.1   0.000000277   0.00000   0.00000  -0.00007   0.00097
  36   97089.4    103.0   0.000000000   0.00000  -0.00000  -0.00000  -0.00000
  37   97092.0    103.0   0.000000000   0.00000   0.00000  -0.00000   0.00000
  38   98379.7    101.6   0.000000000   0.00000   0.00000  -0.00000  -0.00000
  39  100188.3     99.8   0.102235719   0.33594   0.00000  -0.57043  -0.10269
  40  100188.3     99.8   0.102235751   0.33594  -0.00000   0.10269  -0.57043
  41  101381.5     98.6   0.000000000   0.00000   0.00000   0.00000   0.00000
  42  101744.2     98.3   0.000000141   0.00000  -0.00000   0.00068   0.00001
  43  101744.2     98.3   0.000000139   0.00000   0.00000   0.00001  -0.00067
  44  102217.5     97.8   0.003535095   0.01139   0.00000   0.00250   0.10667
  45  102217.5     97.8   0.003535103   0.01139   0.00000  -0.10667   0.00250
  46  102754.4     97.3   0.000000000   0.00000   0.00000   0.00000  -0.00000
  47  102754.4     97.3   0.000000000   0.00000  -0.00000   0.00000  -0.00000
  48  103494.8     96.6   0.000000000   0.00000   0.00000   0.00000   0.00000
  49  103495.4     96.6   0.000000000   0.00000  -0.00000   0.00000  -0.00000
  50  104150.9     96.0   0.102449371   0.32383  -0.56906   0.00000  -0.00000
  51  104169.9     96.0   0.000000000   0.00000   0.00000  -0.00000  -0.00000
  52  105007.2     95.2   0.000000000   0.00000   0.00001  -0.00000   0.00000
  53  108709.7     92.0   0.079933878   0.24207   0.00000  -0.23910  -0.43000
  54  108709.7     92.0   0.079933897   0.24207   0.00000   0.43000  -0.23910
  55  108971.5     91.8   0.000000000   0.00000  -0.00000   0.00000   0.00000
  56  108987.9     91.8   0.000000000   0.00000   0.00000   0.00000  -0.00000
  57  112455.9     88.9   0.027350765   0.08007   0.00000  -0.00941  -0.28281
  58  112455.9     88.9   0.027351100   0.08007   0.00000  -0.28281   0.00941
  59  112977.9     88.5   0.000000000   0.00000  -0.00000  -0.00000  -0.00000
  60  112977.9     88.5   0.000000000   0.00000  -0.00000  -0.00000   0.00000
  61  114569.8     87.3   0.000000000   0.00000  -0.00000  -0.00000  -0.00000
  62  114569.8     87.3   0.000000000   0.00000   0.00000   0.00000  -0.00000
  63  116208.6     86.1   0.070508886   0.19975   0.00000  -0.01289   0.44675
  64  116208.6     86.1   0.070509108   0.19975  -0.00000   0.44675   0.01289
  65  116852.0     85.6   1.069994492   3.01454   1.73624   0.00000  -0.00000
  66  117612.8     85.0   0.000000000   0.00000   0.00000   0.00000  -0.00000
  67  117612.8     85.0   0.000000000   0.00000   0.00000   0.00000  -0.00000
  68  119258.3     83.9   0.000000000   0.00000  -0.00001   0.00000  -0.00000
  69  124080.7     80.6   0.000000000   0.00000  -0.00000   0.00000  -0.00002
  70  124088.5     80.6   0.000000000   0.00000   0.00000  -0.00001  -0.00000
  71  124971.6     80.0   5.449383702  14.35528   0.00000   0.12488   3.78678
  72  124971.6     80.0   5.449383752  14.35527   0.00000   3.78678  -0.12488
  73  126487.9     79.1   0.000000000   0.00000  -0.00000   0.00000  -0.00001
  74  126487.9     79.1   0.000000000   0.00000  -0.00000   0.00000  -0.00000
  75  126966.1     78.8   0.000000000   0.00000   0.00000   0.00000   0.00000
  76  126972.0     78.8   0.000000000   0.00000  -0.00000   0.00000   0.00000
  77  127784.9     78.3   0.000000000   0.00000  -0.00000  -0.00000  -0.00000
  78  127817.3     78.2   0.000000000   0.00000   0.00000  -0.00000  -0.00000
  79  127943.8     78.2   0.000000000   0.00000   0.00000  -0.00000  -0.00000
  80  127943.8     78.2   0.000000000   0.00000  -0.00000   0.00001   0.00000
  81  128933.0     77.6   0.010075581   0.02573   0.16039   0.00000   0.00000
  82  136393.9     73.3   0.000000000   0.00000  -0.00000  -0.00000   0.00000
  83  137841.9     72.5   0.000215646   0.00052   0.00000   0.00156  -0.02264
  84  137841.9     72.5   0.000215639   0.00052   0.00000  -0.02264  -0.00155
  85  139635.9     71.6   0.000000001   0.00000  -0.00004  -0.00000   0.00000
  86  139640.1     71.6   0.000000000   0.00000  -0.00001  -0.00000  -0.00000
  87  139686.6     71.6   0.192006203   0.45252   0.67269   0.00000  -0.00000
  88  140359.0     71.2   0.000000000   0.00000   0.00000   0.00000  -0.00000
  89  147569.4     67.8   0.787679018   1.75723  -1.32561   0.00000  -0.00000
  90  154099.4     64.9   0.000000000   0.00000  -0.00000   0.00000   0.00000
  91  154099.4     64.9   0.000000000   0.00000  -0.00000   0.00000  -0.00000
  92  156563.7     63.9   0.000000000   0.00000   0.00000  -0.00000   0.00000
  93  164859.4     60.7   0.000334200   0.00067  -0.02583  -0.00000   0.00000
  94  168183.1     59.5   0.000000000   0.00000  -0.00000  -0.00000  -0.00000
  95  168183.1     59.5   0.000000000   0.00000   0.00000  -0.00000   0.00000
  96  172346.2     58.0   0.000000000   0.00000  -0.00000  -0.00000   0.00000
  97  175437.8     57.0   0.000000000   0.00000   0.00000   0.00000  -0.00000
  98  175451.7     57.0   0.000000000   0.00000  -0.00000   0.00000  -0.00000
  99  176807.0     56.6   0.000000000   0.00000   0.00000   0.00000   0.00000
 100  176807.0     56.6   0.000000000   0.00000   0.00000  -0.00000   0.00000
 101  182106.2     54.9   0.084533825   0.15282   0.00000   0.04903   0.38784
 102  182106.2     54.9   0.084533881   0.15282  -0.00000   0.38784  -0.04903
 103  185417.2     53.9   0.000000000   0.00000  -0.00000   0.00000   0.00000
 104  186397.3     53.6   0.005128438   0.00906  -0.00000   0.08247  -0.04751
 105  186397.3     53.6   0.005128436   0.00906  -0.00000  -0.04751  -0.08247
 106  187641.9     53.3   0.060758727   0.10660   0.32650   0.00000   0.00000
 107  190273.5     52.6   0.000000000   0.00000  -0.00000  -0.00000   0.00000
 108  190286.6     52.6   0.000000000   0.00000   0.00000  -0.00000  -0.00000
 109  192422.0     52.0   0.123409647   0.21114  -0.00000  -0.02464  -0.45884
 110  192422.0     52.0   0.123410414   0.21114  -0.00000   0.45884  -0.02464
 111  193076.3     51.8   0.047346324   0.08073   0.00000   0.27852   0.05618
 112  193076.3     51.8   0.047346838   0.08073  -0.00000   0.05618  -0.27852
 113  193086.0     51.8   0.000000000   0.00000   0.00000  -0.00001  -0.00000
 114  193099.0     51.8   0.000000000   0.00000   0.00000   0.00000  -0.00001
 115  195612.8     51.1   0.098467190   0.16572   0.40708  -0.00000   0.00000
 116  199094.2     50.2   0.000000000   0.00000  -0.00000   0.00000   0.00000
 117  199094.2     50.2   0.000000000   0.00000  -0.00000  -0.00000   0.00000
 118  204642.7     48.9   0.000000000   0.00000   0.00000  -0.00000   0.00000
 119  204642.7     48.9   0.000000000   0.00000   0.00000   0.00000  -0.00000
 120  206070.0     48.5   0.000000000   0.00000  -0.00000   0.00000  -0.00000
 121  207106.7     48.3   0.000000000   0.00000  -0.00000   0.00000   0.00000
 122  207116.5     48.3   0.000000000   0.00000   0.00000  -0.00000   0.00000
 123  209232.8     47.8   0.000000000   0.00000   0.00000   0.00000   0.00000
 124  209233.6     47.8   0.000000000   0.00000   0.00000   0.00000  -0.00000
 125  209439.3     47.7   0.000000000   0.00000   0.00000   0.00000   0.00000
 126  210987.8     47.4   0.002867845   0.00447  -0.06689  -0.00000   0.00000
 127  211265.2     47.3   0.000000000   0.00000  -0.00000  -0.00000  -0.00000
 128  213261.7     46.9   0.000000000   0.00000   0.00000   0.00000  -0.00000
 129  213261.7     46.9   0.000000000   0.00000  -0.00000   0.00000   0.00000
 130  215578.4     46.4   0.100910524   0.15410   0.39256   0.00000   0.00000
 131  217535.6     46.0   0.001340719   0.00203  -0.00000   0.01272   0.04321
 132  217535.6     46.0   0.001340723   0.00203  -0.00000  -0.04321   0.01272
 133  219522.6     45.6   0.045008494   0.06750  -0.25980  -0.00000  -0.00000
 134  219596.1     45.5   0.000000000   0.00000   0.00000   0.00000   0.00000
 135  219596.1     45.5   0.000000000   0.00000   0.00000  -0.00000   0.00000
 136  220922.2     45.3   0.000000000   0.00000   0.00000   0.00000  -0.00000
 137  220949.1     45.3   0.000000000   0.00000   0.00000  -0.00000  -0.00000
 138  221738.1     45.1   0.000000000   0.00000  -0.00000   0.00000  -0.00000
 139  224522.0     44.5   0.000000000   0.00000   0.00000  -0.00000  -0.00000
 140  224522.0     44.5   0.000000000   0.00000   0.00000   0.00000  -0.00000
 141  224881.7     44.5   0.000000000   0.00000   0.00000  -0.00000  -0.00000
 142  224904.1     44.5   0.000009305   0.00001   0.00000   0.00027  -0.00368
 143  224904.1     44.5   0.000009306   0.00001  -0.00000   0.00368   0.00027
 144  225807.3     44.3   0.004976312   0.00726  -0.08518   0.00000   0.00000
 145  228311.8     43.8   0.000000006   0.00000  -0.00009   0.00000  -0.00000
 146  228325.9     43.8   0.000000000   0.00000   0.00000  -0.00000   0.00000
 147  229825.2     43.5   0.000000046   0.00000   0.00000   0.00026   0.00002
 148  229825.2     43.5   0.000000046   0.00000   0.00000  -0.00002   0.00026
 149  229887.7     43.5   0.000000000   0.00000   0.00000   0.00000   0.00000
 150  229902.7     43.5   0.000000000   0.00000   0.00000  -0.00000   0.00000

Dispersion correction           -0.002879006
FINAL SINGLE POINT ENERGY      -595.634070572590

DIPOLE MOMENT
-------------
                                X             Y             Z
Electronic contribution:     -0.00000       0.00000       0.00000
Nuclear contribution   :      0.00000       0.00000       0.00000
                        -----------------------------------------
Total Dipole Moment    :     -0.00000       0.00000       0.00000
                        -----------------------------------------
Magnitude (a.u.)       :      0.00000
Magnitude (Debye)      :      0.00000

Rotational constants in cm-1:     0.000000     0.035798     0.035798
Rotational constants in MHz :     0.000000  1073.210620  1073.210620

                             ****ORCA TERMINATED NORMALLY****
TOTAL RUN TIME: 0 days 0 hours 6 minutes 56 seconds 391 msec
