                         Program Version 5.0.4 -  RELEASE  -
|  1> !B3LYP DEF2-SVP OPT FREQ D4 SOSCF
|  2>
|  3> * xyz 0 1
|  4>    C       -4.88581        2.97813        0.03473
|  5>    C       -6.15078        2.35253        0.02097
|  6>    C       -6.25540        0.96266       -0.00185
|  7>    C       -5.11353        0.15496       -0.01087
|  8>    C       -3.85695        0.76914        0.00131
|  9>    C       -3.73754        2.15781        0.02411
| 10>    H       -7.05436        2.96958        0.02421
| 11>    H       -7.24833        0.50408       -0.01002
| 12>    H       -5.20137       -0.93358       -0.02623
| 13>    H       -2.95011        0.15769       -0.00441
| 14>    H       -2.74681        2.62210        0.02969
| 15>    N       -4.77529        4.34921       -0.01662
| 16>    H       -5.59728        4.92977        0.38131
| 17>    H       -3.87255        4.79152        0.38510
| 18> **                         ****END OF INPUT****
 Total Charge           Charge          ....    0
 Multiplicity           Mult            ....    1
 Number of Electrons    NEL             ....   50
Dispersion correction           -0.020939080
FINAL SINGLE POINT ENERGY      -287.231870897530
Dispersion correction            ... Starting D4
Dispersion correction           -0.020975057
FINAL SINGLE POINT ENERGY      -287.238581756071
Dispersion correction            ... Starting D4
Dispersion correction           -0.020971915
FINAL SINGLE POINT ENERGY      -287.238940152327
Dispersion correction            ... Starting D4
FINAL SINGLE POINT ENERGY      -287.239097483314
FINAL SINGLE POINT ENERGY      -287.239106324479
Dispersion correction           -0.020978215
FINAL SINGLE POINT ENERGY      -287.239116044099
Dispersion correction            ... Starting D4
Dispersion correction           -0.020978049
FINAL SINGLE POINT ENERGY      -287.239119204115
Dispersion correction            ... Starting D4
                    ***********************HURRAY********************

CARTESIAN COORDINATES (ANGSTROEM)
---------------------------------
  C     -4.885693    2.982071    0.043335
  C     -6.149597    2.358643    0.027586
  C     -6.255594    0.968452   -0.001219
  C     -5.112906    0.162344   -0.014403
  C     -3.855860    0.774975    0.002082
  C     -3.738000    2.164171    0.030908
  H     -7.052564    2.976530    0.034760
  H     -7.248158    0.509364   -0.011763
  H     -5.200664   -0.926215   -0.035688
  H     -2.949352    0.163234   -0.005900
  H     -2.747825    2.629557    0.040545
  N     -4.774000    4.365826    0.021733
  H     -5.579854    4.886196    0.348717
  H     -3.896042    4.750452    0.350736

 Multiplicity           Mult            ....    1
 Number of Electrons    NEL             ....   50
 Basis Dimension        Dim             ....  133

ORBITAL ENERGIES
----------------

  NO   OCC          E(Eh)            E(eV)
   0   2.0000     -14.330007      -389.9393
   1   2.0000     -10.220604      -278.1168
   2   2.0000     -10.179681      -277.0032
   3   2.0000     -10.179664      -277.0027
   4   2.0000     -10.174480      -276.8617
   5   2.0000     -10.174461      -276.8612
   6   2.0000     -10.169221      -276.7186
   7   2.0000      -0.904753       -24.6196
   8   2.0000      -0.819107       -22.2890
   9   2.0000      -0.726574       -19.7711
  10   2.0000      -0.708452       -19.2779
  11   2.0000      -0.598662       -16.2904
  12   2.0000      -0.585750       -15.9391
  13   2.0000      -0.516524       -14.0553
  14   2.0000      -0.503170       -13.6919
  15   2.0000      -0.467765       -12.7285
  16   2.0000      -0.423262       -11.5175
  17   2.0000      -0.421535       -11.4705
  18   2.0000      -0.409235       -11.1359
  19   2.0000      -0.377372       -10.2688
  20   2.0000      -0.350892        -9.5483
  21   2.0000      -0.333697        -9.0804
  22   2.0000      -0.305782        -8.3207
  23   2.0000      -0.244705        -6.6588
  24   2.0000      -0.199350        -5.4246
  25   0.0000       0.002412         0.0656
  26   0.0000       0.018538         0.5044
  27   0.0000       0.056820         1.5462
  28   0.0000       0.075658         2.0588
  29   0.0000       0.090102         2.4518

MULLIKEN ATOMIC CHARGES
-----------------------
   0 C :    0.061069
   1 C :   -0.027755
   2 C :    0.014944
   3 C :    0.010663
   4 C :    0.014782
   5 C :   -0.027242
   6 H :   -0.047933
   7 H :   -0.023035
   8 H :   -0.027603
   9 H :   -0.022874
  10 H :   -0.048261
  11 N :   -0.086670
  12 H :    0.105002
  13 H :    0.104912
Sum of atomic charges:    0.0000000

LOEWDIN ATOMIC CHARGES
----------------------
   0 C :    0.023459
   1 C :   -0.070033
   2 C :   -0.016914
   3 C :   -0.063047
   4 C :   -0.016937
   5 C :   -0.069991
   6 H :    0.019071
   7 H :    0.025126
   8 H :    0.022072
   9 H :    0.025159
  10 H :    0.019012
  11 N :   -0.035197
  12 H :    0.069131
  13 H :    0.069090

  Mayer bond orders larger than 0.100000
B(  0-C ,  1-C ) :   1.3346 B(  0-C ,  5-C ) :   1.3349 B(  0-C , 11-N ) :   1.2045
B(  1-C ,  2-C ) :   1.4013 B(  1-C ,  6-H ) :   0.9836 B(  2-C ,  3-C ) :   1.3742
B(  2-C ,  7-H ) :   0.9789 B(  3-C ,  4-C ) :   1.3739 B(  3-C ,  8-H ) :   0.9869
B(  4-C ,  5-C ) :   1.4014 B(  4-C ,  9-H ) :   0.9789 B(  5-C , 10-H ) :   0.9835
B( 11-N , 12-H ) :   0.9525 B( 11-N , 13-H ) :   0.9525

Dispersion correction           -0.020977643
FINAL SINGLE POINT ENERGY      -287.239120079726

DIPOLE MOMENT
-------------
                                X             Y             Z
Electronic contribution:     -0.00700      -0.08711      -0.16517
Nuclear contribution   :      0.05809       0.72683       0.52928
                        -----------------------------------------
Total Dipole Moment    :      0.05109       0.63972       0.36411
                        -----------------------------------------
Magnitude (a.u.)       :      0.73785
Magnitude (Debye)      :      1.87547

Dispersion correction in the Hessian             ... Starting D4

VIBRATIONAL FREQUENCIES
-----------------------

Scaling factor for frequencies =  1.000000000  (already applied!)

   0:         0.00 cm**-1
   1:         0.00 cm**-1
   2:         0.00 cm**-1
   3:         0.00 cm**-1
   4:         0.00 cm**-1
   5:         0.00 cm**-1
   6:       222.97 cm**-1
   7:       326.42 cm**-1
   8:       386.18 cm**-1
   9:       422.97 cm**-1
  10:       483.33 cm**-1
  11:       534.45 cm**-1
  12:       541.62 cm**-1
  13:       634.60 cm**-1
  14:       712.75 cm**-1
  15:       774.17 cm**-1
  16:       833.02 cm**-1
  17:       837.32 cm**-1
  18:       899.53 cm**-1
  19:       984.37 cm**-1
  20:      1005.44 cm**-1
  21:      1008.22 cm**-1
  22:      1049.21 cm**-1
  23:      1057.80 cm**-1
  24:      1125.32 cm**-1
  25:      1165.40 cm**-1
  26:      1186.97 cm**-1
  27:      1326.60 cm**-1
  28:      1349.86 cm**-1
  29:      1376.54 cm**-1
  30:      1500.58 cm**-1
  31:      1536.80 cm**-1
  32:      1625.05 cm**-1
  33:      1639.89 cm**-1
  34:      1675.84 cm**-1
  35:      3159.17 cm**-1
  36:      3160.69 cm**-1
  37:      3175.53 cm**-1
  38:      3180.64 cm**-1
  39:      3197.36 cm**-1
  40:      3568.19 cm**-1
  41:      3673.63 cm**-1

IR SPECTRUM
-----------

 Mode   freq       eps      Int      T**2         TX        TY        TZ
       cm**-1   L/(mol*cm) km/mol    a.u.
----------------------------------------------------------------------------
  6:    222.97   0.001160    5.86  0.001624  ( 0.001828  0.021129 -0.034269)
  7:    326.42   0.003054   15.43  0.002919  (-0.053888  0.003919  0.000283)
  8:    386.18   0.000056    0.28  0.000045  ( 0.006705 -0.000684  0.000109)
  9:    422.97   0.000036    0.18  0.000026  (-0.005119  0.000260  0.000133)
 10:    483.33   0.053785  271.81  0.034727  ( 0.011207  0.138443 -0.124237)
 11:    534.45   0.004733   23.92  0.002764  ( 0.004108  0.050936 -0.012347)
 12:    541.62   0.005268   26.62  0.003035  ( 0.004082  0.050862 -0.020776)
 13:    634.60   0.000059    0.30  0.000029  (-0.005361  0.000448 -0.000009)
 14:    712.75   0.004725   23.88  0.002069  (-0.000094 -0.000372  0.045480)
 15:    774.17   0.008072   40.79  0.003254  ( 0.000925  0.010654 -0.056030)
 16:    833.02   0.000012    0.06  0.000004  (-0.002067  0.000202 -0.000027)
 17:    837.32   0.000813    4.11  0.000303  ( 0.001356  0.016717  0.004643)
 18:    899.53   0.001458    7.37  0.000506  (-0.000400 -0.004680  0.021990)
 19:    984.37   0.000000    0.00  0.000000  ( 0.000043 -0.000005 -0.000001)
 20:   1005.44   0.000260    1.31  0.000081  (-0.000670 -0.008570 -0.002592)
 21:   1008.22   0.000054    0.27  0.000017  ( 0.000033  0.000307 -0.004071)
 22:   1049.21   0.000580    2.93  0.000172  ( 0.001116  0.013085  0.000051)
 23:   1057.80   0.000434    2.20  0.000128  (-0.011281  0.000962 -0.000026)
 24:   1125.32   0.000870    4.40  0.000241  ( 0.015482 -0.001276  0.000013)
 25:   1165.40   0.000385    1.94  0.000103  ( 0.010120 -0.000772  0.000013)
 26:   1186.97   0.001634    8.26  0.000430  ( 0.001654  0.020635  0.001028)
 27:   1326.60   0.010216   51.63  0.002403  ( 0.003919  0.048865 -0.000267)
 28:   1349.86   0.000010    0.05  0.000002  ( 0.001545 -0.000105  0.000003)
 29:   1376.54   0.002380   12.03  0.000540  (-0.023148  0.001940 -0.000029)
 30:   1500.58   0.000198    1.00  0.000041  (-0.006395  0.000493 -0.000001)
 31:   1536.80   0.012039   60.84  0.002445  ( 0.003995  0.049268 -0.001142)
 32:   1625.05   0.009141   46.19  0.001755  (-0.003152 -0.038835 -0.015404)
 33:   1639.89   0.001120    5.66  0.000213  ( 0.014549 -0.001238 -0.000001)
 34:   1675.84   0.029250  147.82  0.005447  ( 0.005913  0.073359  0.005494)
 35:   3159.17   0.003350   16.93  0.000331  ( 0.000656  0.018173  0.000487)
 36:   3160.69   0.000814    4.11  0.000080  ( 0.008933  0.000739  0.000048)
 37:   3175.53   0.000642    3.24  0.000063  ( 0.000430  0.007929  0.000184)
 38:   3180.64   0.006304   31.86  0.000619  ( 0.024803 -0.001827  0.000035)
 39:   3197.36   0.002296   11.60  0.000224  (-0.001121 -0.014923 -0.000332)
 40:   3568.19   0.005123   25.89  0.000448  (-0.001500 -0.019316 -0.008525)
 41:   3673.63   0.003468   17.52  0.000295  ( 0.017114 -0.001295  0.000060)

--------------------------
THERMOCHEMISTRY AT 298.15K
--------------------------

Temperature         ... 298.15 K
Pressure            ... 1.00 atm
Total Mass          ... 93.13 AMU

Throughout the following assumptions are being made:
  (1) The electronic state is orbitally nondegenerate
  (2) There are no thermally accessible electronically excited states
  (3) Hindered rotations indicated by low frequency modes are not
      treated as such but are treated as vibrations and this may
      cause some error
  (4) All equations used are the standard statistical mechanics
      equations for an ideal gas
  (5) All vibrations are strictly harmonic

freq.     222.97  E(vib)   ...       0.33
freq.     326.42  E(vib)   ...       0.24
freq.     386.18  E(vib)   ...       0.20
freq.     422.97  E(vib)   ...       0.18
freq.     483.33  E(vib)   ...       0.15
freq.     534.45  E(vib)   ...       0.13
freq.     541.62  E(vib)   ...       0.12
freq.     634.60  E(vib)   ...       0.09
freq.     712.75  E(vib)   ...       0.07
freq.     774.17  E(vib)   ...       0.05
freq.     833.02  E(vib)   ...       0.04
freq.     837.32  E(vib)   ...       0.04
freq.     899.53  E(vib)   ...       0.03
freq.     984.37  E(vib)   ...       0.02
freq.    1005.44  E(vib)   ...       0.02
freq.    1008.22  E(vib)   ...       0.02
freq.    1049.21  E(vib)   ...       0.02
freq.    1057.80  E(vib)   ...       0.02
freq.    1125.32  E(vib)   ...       0.01
freq.    1165.40  E(vib)   ...       0.01
freq.    1186.97  E(vib)   ...       0.01
freq.    1326.60  E(vib)   ...       0.01
freq.    1349.86  E(vib)   ...       0.01
freq.    1376.54  E(vib)   ...       0.01
freq.    1500.58  E(vib)   ...       0.00
freq.    1536.80  E(vib)   ...       0.00
freq.    1625.05  E(vib)   ...       0.00
freq.    1639.89  E(vib)   ...       0.00
freq.    1675.84  E(vib)   ...       0.00
freq.    3159.17  E(vib)   ...       0.00
freq.    3160.69  E(vib)   ...       0.00
freq.    3175.53  E(vib)   ...       0.00
freq.    3180.64  E(vib)   ...       0.00
freq.    3197.36  E(vib)   ...       0.00
freq.    3568.19  E(vib)   ...       0.00
freq.    3673.63  E(vib)   ...       0.00

------------
INNER ENERGY
------------

The inner energy is: U= E(el) + E(ZPE) + E(vib) + E(rot) + E(trans)
    E(el)   - is the total energy from the electronic structure calculation
              = E(kin-el) + E(nuc-el) + E(el-el) + E(nuc-nuc)
    E(ZPE)  - the the zero temperature vibrational energy from the frequency calculation
    E(vib)  - the the finite temperature correction to E(ZPE) due to population
              of excited vibrational states
    E(rot)  - is the rotational thermal energy
    E(trans)- is the translational thermal energy

Summary of contributions to the inner energy U:
Electronic energy                ...   -287.23912008 Eh
Zero point energy                ...      0.11695758 Eh      73.39 kcal/mol
Thermal vibrational correction   ...      0.00295855 Eh       1.86 kcal/mol
Thermal rotational correction    ...      0.00141627 Eh       0.89 kcal/mol
Thermal translational correction ...      0.00141627 Eh       0.89 kcal/mol
-----------------------------------------------------------------------
Total thermal energy                   -287.11637141 Eh

Summary of corrections to the electronic energy:
(perhaps to be used in another calculation)
Total thermal correction                  0.00579109 Eh       3.63 kcal/mol
Non-thermal (ZPE) correction              0.11695758 Eh      73.39 kcal/mol
-----------------------------------------------------------------------
Total correction                          0.12274866 Eh      77.03 kcal/mol

--------
ENTHALPY
--------

The enthalpy is H = U + kB*T
                kB is Boltzmann's constant
Total free energy                 ...   -287.11637141 Eh
Thermal Enthalpy correction       ...      0.00094421 Eh       0.59 kcal/mol
-----------------------------------------------------------------------
Total Enthalpy                    ...   -287.11542721 Eh

Note: Only C1 symmetry has been detected, increase convergence thresholds
      if your molecule has a higher symmetry. Symmetry factor of 1.0 is
      used for the rotational entropy correction.

Note: Rotational entropy computed according to Herzberg
Infrared and Raman Spectra, Chapter V,1, Van Nostrand Reinhold, 1945
Point Group:  C1, Symmetry Number:   1
Rotational constants in cm-1:     0.186570     0.086136     0.059004

Vibrational entropy computed according to the QRRHO of S. Grimme
Chem.Eur.J. 2012 18 9955

-------
ENTROPY
-------

The entropy contributions are T*S = T*(S(el)+S(vib)+S(rot)+S(trans))
     S(el)   - electronic entropy
     S(vib)  - vibrational entropy
     S(rot)  - rotational entropy
     S(trans)- translational entropy
The entropies will be listed as multiplied by the temperature to get
units of energy

Electronic entropy                ...      0.00000000 Eh      0.00 kcal/mol
Vibrational entropy               ...      0.00430887 Eh      2.70 kcal/mol
Rotational entropy                ...      0.01279700 Eh      8.03 kcal/mol
Translational entropy             ...      0.01877043 Eh     11.78 kcal/mol
-----------------------------------------------------------------------
Final entropy term                ...      0.03587630 Eh     22.51 kcal/mol

In case the symmetry of your molecule has not been determined correctly
or in case you have a reason to use a different symmetry number we print
out the resulting rotational entropy values for sn=1,12 :
 --------------------------------------------------------
|  sn= 1 | S(rot)=       0.01279700 Eh      8.03 kcal/mol|
|  sn= 2 | S(rot)=       0.01214254 Eh      7.62 kcal/mol|
|  sn= 3 | S(rot)=       0.01175971 Eh      7.38 kcal/mol|
|  sn= 4 | S(rot)=       0.01148809 Eh      7.21 kcal/mol|
|  sn= 5 | S(rot)=       0.01127740 Eh      7.08 kcal/mol|
|  sn= 6 | S(rot)=       0.01110525 Eh      6.97 kcal/mol|
|  sn= 7 | S(rot)=       0.01095971 Eh      6.88 kcal/mol|
|  sn= 8 | S(rot)=       0.01083363 Eh      6.80 kcal/mol|
|  sn= 9 | S(rot)=       0.01072242 Eh      6.73 kcal/mol|
|  sn=10 | S(rot)=       0.01062294 Eh      6.67 kcal/mol|
|  sn=11 | S(rot)=       0.01053295 Eh      6.61 kcal/mol|
|  sn=12 | S(rot)=       0.01045080 Eh      6.56 kcal/mol|
 --------------------------------------------------------

-------------------
GIBBS FREE ENERGY
-------------------

The Gibbs free energy is G = H - T*S

Total enthalpy                    ...   -287.11542721 Eh
Total entropy correction          ...     -0.03587630 Eh    -22.51 kcal/mol
-----------------------------------------------------------------------
Final Gibbs free energy         ...   -287.15130350 Eh

For completeness - the Gibbs free energy minus the electronic energy

                             ****ORCA TERMINATED NORMALLY****
TOTAL RUN TIME: 0 days 0 hours 14 minutes 49 seconds 566 msec
