                         Program Version 5.0.4 -  RELEASE  -
|  1> !B3LYP DEF2-QZVPP
|  2>
|  3> %scf
|  4> convergence tight
|  5> end
|  6>
|  7> * xyz 0 1
|  8>   C   -6.48685128277804      0.77688258612871      0.00000003669213
|  9>   C   -7.73381145284436      0.14568444861554     -0.00000001281082
| 10>   C   -7.78899585175133     -1.25047491000549      0.00000011071880
| 11>   C   -6.61307853819634     -2.00658591283547     -0.00000008160071
| 12>   C   -5.37350246533332     -1.36010178848815     -0.00000002916520
| 13>   C   -5.30222408891036      0.03530712324043      0.00000018545977
| 14>   H   -8.64519500876919      0.74587694922205     -0.00000005341796
| 15>   H   -8.76194889046812     -1.74856684410237      0.00000018644643
| 16>   H   -6.66266737522386     -3.09801741276813     -0.00000018313853
| 17>   H   -4.44947771966353     -1.94396554004229     -0.00000012119653
| 18>   H   -4.34031613114399      0.55064255938228      0.00000022091144
| 19>   Cl  -6.40746119491754      2.52416874165289     -0.00000025889883
| 20> **                         ****END OF INPUT****

CARTESIAN COORDINATES (ANGSTROEM)
---------------------------------
  C     -6.486851    0.776883    0.000000
  C     -7.733811    0.145684   -0.000000
  C     -7.788996   -1.250475    0.000000
  C     -6.613079   -2.006586   -0.000000
  C     -5.373502   -1.360102   -0.000000
  C     -5.302224    0.035307    0.000000
  H     -8.645195    0.745877   -0.000000
  H     -8.761949   -1.748567    0.000000
  H     -6.662667   -3.098017   -0.000000
  H     -4.449478   -1.943966   -0.000000
  H     -4.340316    0.550643    0.000000
  Cl    -6.407461    2.524169   -0.000000

 Total Charge           Charge          ....    0
 Multiplicity           Mult            ....    1
 Number of Electrons    NEL             ....   58
 Basis Dimension        Dim             ....  562

ORBITAL ENERGIES
----------------

  NO   OCC          E(Eh)            E(eV)
   0   2.0000    -101.529992     -2762.7715
   1   2.0000     -10.243611      -278.7428
   2   2.0000     -10.194418      -277.4042
   3   2.0000     -10.194406      -277.4039
   4   2.0000     -10.193555      -277.3807
   5   2.0000     -10.193515      -277.3796
   6   2.0000     -10.189959      -277.2829
   7   2.0000      -9.460806      -257.4416
   8   2.0000      -7.222876      -196.5444
   9   2.0000      -7.214599      -196.3192
  10   2.0000      -7.214291      -196.3108
  11   2.0000      -0.892568       -24.2880
  12   2.0000      -0.838397       -22.8139
  13   2.0000      -0.761086       -20.7102
  14   2.0000      -0.736642       -20.0451
  15   2.0000      -0.621954       -16.9242
  16   2.0000      -0.603791       -16.4300
  17   2.0000      -0.528148       -14.3716
  18   2.0000      -0.472520       -12.8579
  19   2.0000      -0.470734       -12.8093
  20   2.0000      -0.436613       -11.8809
  21   2.0000      -0.434587       -11.8257
  22   2.0000      -0.400483       -10.8977
  23   2.0000      -0.367540       -10.0013
  24   2.0000      -0.365332        -9.9412
  25   2.0000      -0.338386        -9.2080
  26   2.0000      -0.315261        -8.5787
  27   2.0000      -0.270400        -7.3580
  28   2.0000      -0.252292        -6.8652
  29   0.0000      -0.028757        -0.7825
  30   0.0000      -0.027525        -0.7490
  31   0.0000       0.009251         0.2517
  32   0.0000       0.036526         0.9939
  33   0.0000       0.043090         1.1725

MULLIKEN ATOMIC CHARGES
-----------------------
   0 C :    0.122384
   1 C :   -0.051048
   2 C :   -0.054714
   3 C :   -0.070239
   4 C :   -0.054476
   5 C :   -0.049815
   6 H :    0.072289
   7 H :    0.065091
   8 H :    0.060755
   9 H :    0.065409
  10 H :    0.071854
  11 Cl:   -0.177489
Sum of atomic charges:    0.0000000

LOEWDIN ATOMIC CHARGES
----------------------
   0 C :   -0.466765
   1 C :    0.036790
   2 C :    0.064360
   3 C :    0.060650
   4 C :    0.064398
   5 C :    0.036756
   6 H :   -0.055182
   7 H :   -0.054152
   8 H :   -0.056284
   9 H :   -0.054149
  10 H :   -0.055191
  11 Cl:    0.478770

  Mayer bond orders larger than 0.100000
B(  0-C ,  1-C ) :   1.2582 B(  0-C ,  5-C ) :   1.2585 B(  0-C , 11-Cl) :   1.0155
B(  1-C ,  2-C ) :   1.3224 B(  1-C ,  6-H ) :   0.9587 B(  2-C ,  3-C ) :   1.3295
B(  2-C ,  7-H ) :   0.9643 B(  3-C ,  4-C ) :   1.3300 B(  3-C ,  8-H ) :   0.9684
B(  4-C ,  5-C ) :   1.3228 B(  4-C ,  9-H ) :   0.9645 B(  5-C , 10-H ) :   0.9583

FINAL SINGLE POINT ENERGY      -691.777091367794

DIPOLE MOMENT
-------------
                                X             Y             Z
Electronic contribution:      0.41095       9.05323       0.00000
Nuclear contribution   :     -0.44175      -9.73233       0.00000
                        -----------------------------------------
Total Dipole Moment    :     -0.03080      -0.67910       0.00000
                        -----------------------------------------
Magnitude (a.u.)       :      0.67980
Magnitude (Debye)      :      1.72791

Rotational constants in cm-1:     0.188469     0.051636     0.040531
Rotational constants in MHz :  5650.172228  1548.005627  1215.098957

                             ****ORCA TERMINATED NORMALLY****
TOTAL RUN TIME: 0 days 0 hours 34 minutes 38 seconds 141 msec
