                         Program Version 5.0.4 -  RELEASE  -
|  1> !B3LYP DEF2-SVP OPT FREQ D4
|  2>
|  3> * xyz 0 1
|  4>    C       -1.03027        1.31900       -0.82266
|  5>    C       -1.73587        0.86522        0.21516
|  6>    C       -0.88305        0.02305        1.09398
|  7>    C       -3.16130        1.13144        0.53375
|  8>    H       -3.62574        1.78129       -0.21503
|  9>    H       -3.24953        1.62248        1.50780
| 10>    H       -3.72659        0.19481        0.56417
| 11>    C        0.37890        0.83652       -0.75796
| 12>    C        1.35162        1.98275       -0.50170
| 13>    C        2.77694        1.49108       -0.60877
| 14>    H        1.20205        2.45384        0.47742
| 15>    H        1.21832        2.77785       -1.24651
| 16>    C        3.37068        0.83820        0.62203
| 17>    N        0.39721       -0.13623        0.36628
| 18>    H        0.63766        0.31315       -1.68636
| 19>    H       -1.33439       -0.95732        1.27797
| 20>    H       -0.70374        0.51677        2.05455
| 21>    H        0.37102       -1.06931       -0.05101
| 22>    O        3.37496        1.56344       -1.68539
| 23>   Cl        5.05807        1.34641        0.82867
| 24>    H        3.33218       -0.24885        0.51761
| 25>    H        2.82924        1.14296        1.52052
| 26>    H       -1.40912        1.96229       -1.60486
| 27> **                         ****END OF INPUT****
 Total Charge           Charge          ....    0
 Multiplicity           Mult            ....    1
 Number of Electrons    NEL             ....   92
Dispersion correction           -0.037940240
FINAL SINGLE POINT ENERGY      -901.454278464137
Dispersion correction            ... Starting D4
Dispersion correction           -0.037689588
FINAL SINGLE POINT ENERGY      -901.459260187620
Dispersion correction            ... Starting D4
Dispersion correction           -0.037690075
FINAL SINGLE POINT ENERGY      -901.460619834949
Dispersion correction            ... Starting D4
FINAL SINGLE POINT ENERGY      -901.461242977662
FINAL SINGLE POINT ENERGY      -901.461863401774
FINAL SINGLE POINT ENERGY      -901.462624544539
FINAL SINGLE POINT ENERGY      -901.463413561771
FINAL SINGLE POINT ENERGY      -901.463965413431
FINAL SINGLE POINT ENERGY      -901.464339372335
FINAL SINGLE POINT ENERGY      -901.464529761999
FINAL SINGLE POINT ENERGY      -901.464655691728
FINAL SINGLE POINT ENERGY      -901.464693115857
FINAL SINGLE POINT ENERGY      -901.464749202856
FINAL SINGLE POINT ENERGY      -901.464831665614
FINAL SINGLE POINT ENERGY      -901.464913729090
FINAL SINGLE POINT ENERGY      -901.464954051848
FINAL SINGLE POINT ENERGY      -901.464965084724
Dispersion correction           -0.037547186
FINAL SINGLE POINT ENERGY      -901.464973056682
Dispersion correction            ... Starting D4
Dispersion correction           -0.037546875
FINAL SINGLE POINT ENERGY      -901.464977205580
Dispersion correction            ... Starting D4
                    ***********************HURRAY********************

CARTESIAN COORDINATES (ANGSTROEM)
---------------------------------
  C     -1.053546    1.421352   -0.735492
  C     -1.767177    0.819687    0.224443
  C     -0.916048   -0.215046    0.923391
  C     -3.186589    1.067601    0.620440
  H     -3.651771    1.848910    0.001617
  H     -3.252597    1.379753    1.677880
  H     -3.791339    0.148082    0.527010
  C      0.357058    0.897494   -0.795018
  C      1.415887    2.020068   -0.638849
  C      2.808817    1.412511   -0.635837
  H      1.209671    2.573923    0.290491
  H      1.347403    2.709024   -1.495545
  C      3.376228    1.190492    0.757541
  N      0.411238   -0.072103    0.313816
  H      0.563074    0.409545   -1.769316
  H     -1.341536   -1.230637    0.786948
  H     -0.894692   -0.039611    2.018330
  H      0.801995   -0.962622    0.023650
  O      3.361307    1.068978   -1.652568
  Cl     4.929509    0.313732    0.771681
  H      2.620513    0.616077    1.318407
  H      3.507738    2.160970    1.262354
  H     -1.415892    2.212658   -1.395714

 Multiplicity           Mult            ....    1
 Number of Electrons    NEL             ....   92
 Basis Dimension        Dim             ....  218

ORBITAL ENERGIES
----------------

  NO   OCC          E(Eh)            E(eV)
   0   2.0000    -101.476145     -2761.3063
   1   2.0000     -19.123648      -520.3809
   2   2.0000     -14.319493      -389.6532
   3   2.0000     -10.273084      -279.5448
   4   2.0000     -10.234676      -278.4997
   5   2.0000     -10.229742      -278.3654
   6   2.0000     -10.220863      -278.1238
   7   2.0000     -10.198819      -277.5240
   8   2.0000     -10.197652      -277.4922
   9   2.0000     -10.192361      -277.3483
  10   2.0000     -10.186832      -277.1978
  11   2.0000      -9.430636      -256.6207
  12   2.0000      -7.200061      -195.9236
  13   2.0000      -7.189563      -195.6380
  14   2.0000      -7.189532      -195.6371
  15   2.0000      -1.032971       -28.1086
  16   2.0000      -0.924169       -25.1479
  17   2.0000      -0.839230       -22.8366
  18   2.0000      -0.790202       -21.5025
  19   2.0000      -0.776300       -21.1242
  20   2.0000      -0.717949       -19.5364
  21   2.0000      -0.686751       -18.6875
  22   2.0000      -0.664565       -18.0837
  23   2.0000      -0.584419       -15.9028
  24   2.0000      -0.545273       -14.8376
  25   2.0000      -0.524902       -14.2833
  26   2.0000      -0.514171       -13.9913
  27   2.0000      -0.482407       -13.1270
  28   2.0000      -0.470313       -12.7979
  29   2.0000      -0.454033       -12.3549
  30   2.0000      -0.447540       -12.1782
  31   2.0000      -0.431883       -11.7521
  32   2.0000      -0.426465       -11.6047
  33   2.0000      -0.414378       -11.2758
  34   2.0000      -0.398553       -10.8452
  35   2.0000      -0.397377       -10.8132
  36   2.0000      -0.396710       -10.7950
  37   2.0000      -0.371441       -10.1074
  38   2.0000      -0.366101        -9.9621
  39   2.0000      -0.358966        -9.7680
  40   2.0000      -0.347274        -9.4498
  41   2.0000      -0.285190        -7.7604
  42   2.0000      -0.282118        -7.6768
  43   2.0000      -0.262966        -7.1557
  44   2.0000      -0.249046        -6.7769
  45   2.0000      -0.226798        -6.1715
  46   0.0000      -0.019291        -0.5249
  47   0.0000       0.009521         0.2591
  48   0.0000       0.043824         1.1925
  49   0.0000       0.054007         1.4696
  50   0.0000       0.061971         1.6863

MULLIKEN ATOMIC CHARGES
-----------------------
   0 C :   -0.057262
   1 C :   -0.201306
   2 C :    0.234952
   3 C :    0.103440
   4 H :    0.012467
   5 H :    0.022516
   6 H :    0.020766
   7 C :    0.062134
   8 C :    0.132551
   9 C :    0.007268
  10 H :   -0.013748
  11 H :    0.012280
  12 C :    0.043864
  13 N :   -0.285770
  14 H :    0.011856
  15 H :    0.001434
  16 H :    0.001767
  17 H :    0.113860
  18 O :   -0.177896
  19 Cl:   -0.147773
  20 H :    0.061482
  21 H :    0.061666
  22 H :   -0.020547
Sum of atomic charges:   -0.0000000

LOEWDIN ATOMIC CHARGES
----------------------
   0 C :   -0.050416
   1 C :   -0.036196
   2 C :    0.040386
   3 C :   -0.046550
   4 H :    0.032247
   5 H :    0.035106
   6 H :    0.034318
   7 C :    0.040294
   8 C :   -0.055979
   9 C :    0.061487
  10 H :    0.022953
  11 H :    0.036819
  12 C :   -0.118693
  13 N :   -0.109707
  14 H :    0.018823
  15 H :    0.015362
  16 H :    0.014637
  17 H :    0.062143
  18 O :   -0.137329
  19 Cl:    0.046356
  20 H :    0.033844
  21 H :    0.037318
  22 H :    0.022777

  Mayer bond orders larger than 0.100000
B(  0-C ,  1-C ) :   1.8782 B(  0-C ,  7-C ) :   0.9919 B(  0-C , 22-H ) :   0.9896
B(  1-C ,  2-C ) :   1.0175 B(  1-C ,  3-C ) :   1.0960 B(  2-C , 13-N ) :   1.0339
B(  2-C , 15-H ) :   0.9261 B(  2-C , 16-H ) :   0.9252 B(  3-C ,  4-H ) :   0.9560
B(  3-C ,  5-H ) :   0.9469 B(  3-C ,  6-H ) :   0.9472 B(  7-C ,  8-C ) :   1.0244
B(  7-C , 13-N ) :   1.0574 B(  7-C , 14-H ) :   0.9088 B(  8-C ,  9-C ) :   0.9732
B(  8-C , 10-H ) :   0.9123 B(  8-C , 11-H ) :   0.9062 B(  9-C , 12-C ) :   0.9281
B(  9-C , 18-O ) :   2.2151 B( 12-C , 19-Cl) :   1.0426 B( 12-C , 20-H ) :   0.9117
B( 12-C , 21-H ) :   0.9291 B( 13-N , 17-H ) :   0.9374

Dispersion correction           -0.037546337
FINAL SINGLE POINT ENERGY      -901.464980222348

DIPOLE MOMENT
-------------
                                X             Y             Z
Electronic contribution:     22.64461      -2.30717      -1.10948
Nuclear contribution   :    -24.46675       2.52936       1.68763
                        -----------------------------------------
Total Dipole Moment    :     -1.82214       0.22219       0.57815
                        -----------------------------------------
Magnitude (a.u.)       :      1.92453
Magnitude (Debye)      :      4.89177

Dispersion correction in the Hessian             ... Starting D4

VIBRATIONAL FREQUENCIES
-----------------------

Scaling factor for frequencies =  1.000000000  (already applied!)

   0:         0.00 cm**-1
   1:         0.00 cm**-1
   2:         0.00 cm**-1
   3:         0.00 cm**-1
   4:         0.00 cm**-1
   5:         0.00 cm**-1
   6:        39.05 cm**-1
   7:        46.34 cm**-1
   8:        54.26 cm**-1
   9:        99.62 cm**-1
  10:       137.37 cm**-1
  11:       168.96 cm**-1
  12:       193.11 cm**-1
  13:       217.58 cm**-1
  14:       256.29 cm**-1
  15:       339.35 cm**-1
  16:       373.97 cm**-1
  17:       408.70 cm**-1
  18:       457.50 cm**-1
  19:       541.24 cm**-1
  20:       597.81 cm**-1
  21:       611.29 cm**-1
  22:       657.75 cm**-1
  23:       769.59 cm**-1
  24:       786.68 cm**-1
  25:       839.31 cm**-1
  26:       845.80 cm**-1
  27:       879.65 cm**-1
  28:       901.79 cm**-1
  29:       932.38 cm**-1
  30:       976.54 cm**-1
  31:       983.83 cm**-1
  32:       993.94 cm**-1
  33:      1026.76 cm**-1
  34:      1036.73 cm**-1
  35:      1078.92 cm**-1
  36:      1102.17 cm**-1
  37:      1131.63 cm**-1
  38:      1170.29 cm**-1
  39:      1194.24 cm**-1
  40:      1211.13 cm**-1
  41:      1219.28 cm**-1
  42:      1251.07 cm**-1
  43:      1283.15 cm**-1
  44:      1319.09 cm**-1
  45:      1330.59 cm**-1
  46:      1353.67 cm**-1
  47:      1385.87 cm**-1
  48:      1401.88 cm**-1
  49:      1416.78 cm**-1
  50:      1437.29 cm**-1
  51:      1449.25 cm**-1
  52:      1451.00 cm**-1
  53:      1459.00 cm**-1
  54:      1493.41 cm**-1
  55:      1739.68 cm**-1
  56:      1844.72 cm**-1
  57:      2965.33 cm**-1
  58:      2976.68 cm**-1
  59:      2986.41 cm**-1
  60:      3013.41 cm**-1
  61:      3046.31 cm**-1
  62:      3051.40 cm**-1
  63:      3072.94 cm**-1
  64:      3111.29 cm**-1
  65:      3115.16 cm**-1
  66:      3124.31 cm**-1
  67:      3198.29 cm**-1
  68:      3580.92 cm**-1

IR SPECTRUM
-----------

 Mode   freq       eps      Int      T**2         TX        TY        TZ
       cm**-1   L/(mol*cm) km/mol    a.u.
----------------------------------------------------------------------------
  6:     39.05   0.000691    3.49  0.005523  ( 0.046751  0.054168 -0.020084)
  7:     46.34   0.000067    0.34  0.000454  ( 0.011958  0.015733 -0.007987)
  8:     54.26   0.000710    3.59  0.004081  ( 0.057772  0.027138  0.002549)
  9:     99.62   0.000452    2.29  0.001417  ( 0.015784  0.034042  0.002987)
 10:    137.37   0.001248    6.31  0.002836  ( 0.043705  0.028679  0.010148)
 11:    168.96   0.000032    0.16  0.000059  ( 0.000155 -0.000798  0.007665)
 12:    193.11   0.000062    0.31  0.000101  (-0.004996 -0.008341  0.002463)
 13:    217.58   0.000109    0.55  0.000156  (-0.008297  0.004580 -0.008140)
 14:    256.29   0.000484    2.45  0.000589  (-0.019685  0.005095 -0.013262)
 15:    339.35   0.000047    0.24  0.000044  ( 0.005540  0.001741 -0.003153)
 16:    373.97   0.000597    3.02  0.000498  ( 0.007036 -0.020553 -0.005142)
 17:    408.70   0.000325    1.64  0.000248  ( 0.010290 -0.010157  0.006247)
 18:    457.50   0.001028    5.20  0.000701  (-0.022486 -0.000866 -0.013961)
 19:    541.24   0.000485    2.45  0.000280  (-0.000098 -0.000314  0.016721)
 20:    597.81   0.001690    8.54  0.000882  (-0.027806 -0.004530 -0.009420)
 21:    611.29   0.016367   82.71  0.008355  ( 0.075290 -0.017898  0.048645)
 22:    657.75   0.000883    4.46  0.000419  (-0.010470 -0.010018 -0.014461)
 23:    769.59   0.006115   30.90  0.002480  (-0.045314  0.015220 -0.013949)
 24:    786.68   0.000708    3.58  0.000281  ( 0.014993 -0.007333  0.001515)
 25:    839.31   0.002811   14.21  0.001045  (-0.021932 -0.014747 -0.018624)
 26:    845.80   0.003491   17.64  0.001288  ( 0.033298 -0.012122 -0.005685)
 27:    879.65   0.000382    1.93  0.000136  ( 0.009581 -0.004483  0.004860)
 28:    901.79   0.000412    2.08  0.000143  (-0.010105  0.001693  0.006136)
 29:    932.38   0.000035    0.18  0.000012  (-0.001574  0.001326  0.002748)
 30:    976.54   0.000602    3.04  0.000192  ( 0.006376  0.007189  0.010008)
 31:    983.83   0.000491    2.48  0.000156  ( 0.010267  0.002916  0.006461)
 32:    993.94   0.001525    7.71  0.000479  ( 0.008166  0.000428 -0.020297)
 33:   1026.76   0.000937    4.73  0.000285  (-0.005842 -0.015470 -0.003363)
 34:   1036.73   0.001870    9.45  0.000563  ( 0.014954  0.017943 -0.004179)
 35:   1078.92   0.000516    2.61  0.000149  (-0.009999 -0.007017  0.000379)
 36:   1102.17   0.019384   97.96  0.005488  ( 0.073393  0.001557  0.009960)
 37:   1131.63   0.006369   32.19  0.001756  ( 0.020248  0.023323 -0.028327)
 38:   1170.29   0.000525    2.65  0.000140  ( 0.009740 -0.000539 -0.006699)
 39:   1194.24   0.000179    0.90  0.000047  ( 0.003427 -0.005441  0.002313)
 40:   1211.13   0.001083    5.47  0.000279  ( 0.014728  0.006712 -0.004119)
 41:   1219.28   0.002152   10.88  0.000551  (-0.013106  0.019320 -0.002414)
 42:   1251.07   0.001412    7.14  0.000352  (-0.017307  0.007255 -0.000328)
 43:   1283.15   0.001032    5.22  0.000251  ( 0.014253 -0.002292 -0.006529)
 44:   1319.09   0.003342   16.89  0.000791  (-0.011791 -0.010416 -0.023307)
 45:   1330.59   0.003459   17.48  0.000811  ( 0.015542 -0.010894  0.021237)
 46:   1353.67   0.009073   45.85  0.002092  (-0.041288 -0.016418  0.010834)
 47:   1385.87   0.000548    2.77  0.000123  ( 0.009972 -0.004385 -0.002181)
 48:   1401.88   0.000366    1.85  0.000082  (-0.000372 -0.008300  0.003535)
 49:   1416.78   0.005195   26.25  0.001144  ( 0.018273 -0.002913  0.028316)
 50:   1437.29   0.001752    8.85  0.000380  ( 0.015865  0.005500 -0.009919)
 51:   1449.25   0.001746    8.82  0.000376  (-0.006241 -0.013082 -0.012880)
 52:   1451.00   0.001685    8.51  0.000362  ( 0.012347 -0.014281  0.002431)
 53:   1459.00   0.002474   12.50  0.000529  (-0.003099 -0.015210  0.016979)
 54:   1493.41   0.000595    3.01  0.000124  (-0.010965  0.001916  0.000670)
 55:   1739.68   0.001699    8.59  0.000305  ( 0.015544  0.002726 -0.007470)
 56:   1844.72   0.031222  157.78  0.005282  ( 0.036632 -0.007700 -0.062293)
 57:   2965.33   0.017732   89.61  0.001866  ( 0.023481  0.024248 -0.026957)
 58:   2976.68   0.005182   26.19  0.000543  ( 0.000784 -0.008788 -0.021574)
 59:   2986.41   0.007651   38.66  0.000799  ( 0.003891  0.017346  0.021988)
 60:   3013.41   0.007002   35.38  0.000725  (-0.023939 -0.003006  0.011958)
 61:   3046.31   0.000329    1.66  0.000034  (-0.000224 -0.002859 -0.005043)
 62:   3051.40   0.002962   14.97  0.000303  (-0.002790  0.017174  0.000403)
 63:   3072.94   0.002908   14.70  0.000295  (-0.005139 -0.012010 -0.011167)
 64:   3111.29   0.001070    5.41  0.000107  (-0.009208  0.001336 -0.004559)
 65:   3115.16   0.002509   12.68  0.000251  (-0.006075  0.001099  0.014602)
 66:   3124.31   0.002534   12.81  0.000253  (-0.005174  0.011310 -0.009921)
 67:   3198.29   0.001212    6.13  0.000118  (-0.007646  0.005976 -0.004909)
 68:   3580.92   0.002030   10.26  0.000177  (-0.001206  0.012624  0.004010)

--------------------------
THERMOCHEMISTRY AT 298.15K
--------------------------

Temperature         ... 298.15 K
Pressure            ... 1.00 atm
Total Mass          ... 173.64 AMU

Throughout the following assumptions are being made:
  (1) The electronic state is orbitally nondegenerate
  (2) There are no thermally accessible electronically excited states
  (3) Hindered rotations indicated by low frequency modes are not
      treated as such but are treated as vibrations and this may
      cause some error
  (4) All equations used are the standard statistical mechanics
      equations for an ideal gas
  (5) All vibrations are strictly harmonic

freq.      39.05  E(vib)   ...       0.54
freq.      46.34  E(vib)   ...       0.53
freq.      54.26  E(vib)   ...       0.52
freq.      99.62  E(vib)   ...       0.46
freq.     137.37  E(vib)   ...       0.42
freq.     168.96  E(vib)   ...       0.38
freq.     193.11  E(vib)   ...       0.36
freq.     217.58  E(vib)   ...       0.33
freq.     256.29  E(vib)   ...       0.30
freq.     339.35  E(vib)   ...       0.23
freq.     373.97  E(vib)   ...       0.21
freq.     408.70  E(vib)   ...       0.19
freq.     457.50  E(vib)   ...       0.16
freq.     541.24  E(vib)   ...       0.12
freq.     597.81  E(vib)   ...       0.10
freq.     611.29  E(vib)   ...       0.10
freq.     657.75  E(vib)   ...       0.08
freq.     769.59  E(vib)   ...       0.06
freq.     786.68  E(vib)   ...       0.05
freq.     839.31  E(vib)   ...       0.04
freq.     845.80  E(vib)   ...       0.04
freq.     879.65  E(vib)   ...       0.04
freq.     901.79  E(vib)   ...       0.03
freq.     932.38  E(vib)   ...       0.03
freq.     976.54  E(vib)   ...       0.03
freq.     983.83  E(vib)   ...       0.02
freq.     993.94  E(vib)   ...       0.02
freq.    1026.76  E(vib)   ...       0.02
freq.    1036.73  E(vib)   ...       0.02
freq.    1078.92  E(vib)   ...       0.02
freq.    1102.17  E(vib)   ...       0.02
freq.    1131.63  E(vib)   ...       0.01
freq.    1170.29  E(vib)   ...       0.01
freq.    1194.24  E(vib)   ...       0.01
freq.    1211.13  E(vib)   ...       0.01
freq.    1219.28  E(vib)   ...       0.01
freq.    1251.07  E(vib)   ...       0.01
freq.    1283.15  E(vib)   ...       0.01
freq.    1319.09  E(vib)   ...       0.01
freq.    1330.59  E(vib)   ...       0.01
freq.    1353.67  E(vib)   ...       0.01
freq.    1385.87  E(vib)   ...       0.00
freq.    1401.88  E(vib)   ...       0.00
freq.    1416.78  E(vib)   ...       0.00
freq.    1437.29  E(vib)   ...       0.00
freq.    1449.25  E(vib)   ...       0.00
freq.    1451.00  E(vib)   ...       0.00
freq.    1459.00  E(vib)   ...       0.00
freq.    1493.41  E(vib)   ...       0.00
freq.    1739.68  E(vib)   ...       0.00
freq.    1844.72  E(vib)   ...       0.00
freq.    2965.33  E(vib)   ...       0.00
freq.    2976.68  E(vib)   ...       0.00
freq.    2986.41  E(vib)   ...       0.00
freq.    3013.41  E(vib)   ...       0.00
freq.    3046.31  E(vib)   ...       0.00
freq.    3051.40  E(vib)   ...       0.00
freq.    3072.94  E(vib)   ...       0.00
freq.    3111.29  E(vib)   ...       0.00
freq.    3115.16  E(vib)   ...       0.00
freq.    3124.31  E(vib)   ...       0.00
freq.    3198.29  E(vib)   ...       0.00
freq.    3580.92  E(vib)   ...       0.00

------------
INNER ENERGY
------------

The inner energy is: U= E(el) + E(ZPE) + E(vib) + E(rot) + E(trans)
    E(el)   - is the total energy from the electronic structure calculation
              = E(kin-el) + E(nuc-el) + E(el-el) + E(nuc-nuc)
    E(ZPE)  - the the zero temperature vibrational energy from the frequency calculation
    E(vib)  - the the finite temperature correction to E(ZPE) due to population
              of excited vibrational states
    E(rot)  - is the rotational thermal energy
    E(trans)- is the translational thermal energy

Summary of contributions to the inner energy U:
Electronic energy                ...   -901.46498022 Eh
Zero point energy                ...      0.18940622 Eh     118.85 kcal/mol
Thermal vibrational correction   ...      0.00892715 Eh       5.60 kcal/mol
Thermal rotational correction    ...      0.00141627 Eh       0.89 kcal/mol
Thermal translational correction ...      0.00141627 Eh       0.89 kcal/mol
-----------------------------------------------------------------------
Total thermal energy                   -901.26381432 Eh

Summary of corrections to the electronic energy:
(perhaps to be used in another calculation)
Total thermal correction                  0.01175969 Eh       7.38 kcal/mol
Non-thermal (ZPE) correction              0.18940622 Eh     118.85 kcal/mol
-----------------------------------------------------------------------
Total correction                          0.20116591 Eh     126.23 kcal/mol

--------
ENTHALPY
--------

The enthalpy is H = U + kB*T
                kB is Boltzmann's constant
Total free energy                 ...   -901.26381432 Eh
Thermal Enthalpy correction       ...      0.00094421 Eh       0.59 kcal/mol
-----------------------------------------------------------------------
Total Enthalpy                    ...   -901.26287011 Eh

Note: Only C1 symmetry has been detected, increase convergence thresholds
      if your molecule has a higher symmetry. Symmetry factor of 1.0 is
      used for the rotational entropy correction.

Note: Rotational entropy computed according to Herzberg
Infrared and Raman Spectra, Chapter V,1, Van Nostrand Reinhold, 1945
Point Group:  C1, Symmetry Number:   1
Rotational constants in cm-1:     0.078975     0.013377     0.012208

Vibrational entropy computed according to the QRRHO of S. Grimme
Chem.Eur.J. 2012 18 9955

-------
ENTROPY
-------

The entropy contributions are T*S = T*(S(el)+S(vib)+S(rot)+S(trans))
     S(el)   - electronic entropy
     S(vib)  - vibrational entropy
     S(rot)  - rotational entropy
     S(trans)- translational entropy
The entropies will be listed as multiplied by the temperature to get
units of energy

Electronic entropy                ...      0.00000000 Eh      0.00 kcal/mol
Vibrational entropy               ...      0.01586908 Eh      9.96 kcal/mol
Rotational entropy                ...      0.01482586 Eh      9.30 kcal/mol
Translational entropy             ...      0.01965278 Eh     12.33 kcal/mol
-----------------------------------------------------------------------
Final entropy term                ...      0.05034772 Eh     31.59 kcal/mol

In case the symmetry of your molecule has not been determined correctly
or in case you have a reason to use a different symmetry number we print
out the resulting rotational entropy values for sn=1,12 :
 --------------------------------------------------------

                             ****ORCA TERMINATED NORMALLY****
TOTAL RUN TIME: 0 days 9 hours 30 minutes 20 seconds 927 msec
