                         Program Version 5.0.4 -  RELEASE  -
|  1> !B3LYP DEF2-SVP OPT FREQ D4 SOSCF
|  2>
|  3> * xyz 0 1
|  4>    C       -6.35682        0.98193       -0.00001
|  5>    C       -7.69700        0.58208        0.00000
|  6>    C       -8.01948       -0.77773        0.00002
|  7>    C       -7.00378       -1.73773        0.00002
|  8>    C       -5.66455       -1.33817        0.00001
|  9>    C       -5.34015        0.02113       -0.00000
| 10>    C       -6.02300        2.37673       -0.00004
| 11>    H       -8.48865        1.32155       -0.00000
| 12>    H       -9.05666       -1.08731        0.00003
| 13>    H       -7.25441       -2.79087        0.00004
| 14>    H       -4.87798       -2.08176        0.00002
| 15>    H       -4.30007        0.32471       -0.00001
| 16>    N       -5.74664        3.49907       -0.00006
| 17> **                         ****END OF INPUT****
 Total Charge           Charge          ....    0
 Multiplicity           Mult            ....    1
 Number of Electrons    NEL             ....   54
Dispersion correction           -0.021341204
FINAL SINGLE POINT ENERGY      -324.078248831414
Dispersion correction            ... Starting D4
Dispersion correction           -0.021292543
FINAL SINGLE POINT ENERGY      -324.078757278069
Dispersion correction            ... Starting D4
Dispersion correction           -0.021288368
FINAL SINGLE POINT ENERGY      -324.078785073886
Dispersion correction            ... Starting D4
Dispersion correction           -0.021289414
FINAL SINGLE POINT ENERGY      -324.078797696694
Dispersion correction            ... Starting D4
Dispersion correction           -0.021291194
FINAL SINGLE POINT ENERGY      -324.078798876920
Dispersion correction            ... Starting D4
                    ***********************HURRAY********************

CARTESIAN COORDINATES (ANGSTROEM)
---------------------------------
  C     -6.355296    0.981837   -0.000015
  C     -7.703699    0.579575   -0.000002
  C     -8.021022   -0.778129    0.000019
  C     -7.004142   -1.738329    0.000027
  C     -5.663301   -1.340545    0.000014
  C     -5.333610    0.014193   -0.000007
  C     -6.021860    2.378664   -0.000036
  H     -8.490933    1.335961   -0.000008
  H     -9.068396   -1.089076    0.000030
  H     -7.257845   -2.801301    0.000044
  H     -4.868801   -2.090583    0.000020
  H     -4.289757    0.333789   -0.000018
  N     -5.750529    3.507576   -0.000049

 Multiplicity           Mult            ....    1
 Number of Electrons    NEL             ....   54
 Basis Dimension        Dim             ....  137

ORBITAL ENERGIES
----------------

  NO   OCC          E(Eh)            E(eV)
   0   2.0000     -14.325812      -389.8252
   1   2.0000     -10.239718      -278.6369
   2   2.0000     -10.225493      -278.2498
   3   2.0000     -10.219970      -278.0995
   4   2.0000     -10.219931      -278.0985
   5   2.0000     -10.215860      -277.9877
   6   2.0000     -10.214041      -277.9382
   7   2.0000     -10.213991      -277.9368
   8   2.0000      -0.899100       -24.4657
   9   2.0000      -0.871397       -23.7119
  10   2.0000      -0.778641       -21.1879
  11   2.0000      -0.764175       -20.7943
  12   2.0000      -0.650078       -17.6895
  13   2.0000      -0.626147       -17.0383
  14   2.0000      -0.564672       -15.3655
  15   2.0000      -0.503960       -13.7135
  16   2.0000      -0.483760       -13.1638
  17   2.0000      -0.458422       -12.4743
  18   2.0000      -0.446523       -12.1505
  19   2.0000      -0.408795       -11.1239
  20   2.0000      -0.385926       -10.5016
  21   2.0000      -0.375893       -10.2286
  22   2.0000      -0.356287        -9.6951
  23   2.0000      -0.352016        -9.5788
  24   2.0000      -0.334453        -9.1009
  25   2.0000      -0.280926        -7.6444
  26   2.0000      -0.271380        -7.3846
  27   0.0000      -0.057506        -1.5648
  28   0.0000      -0.032117        -0.8739
  29   0.0000       0.035113         0.9555
  30   0.0000       0.045869         1.2482
  31   0.0000       0.072471         1.9720

MULLIKEN ATOMIC CHARGES
-----------------------
   0 C :   -0.096299
   1 C :    0.046760
   2 C :    0.022571
   3 C :    0.033237
   4 C :    0.021346
   5 C :    0.047624
   6 C :   -0.117718
   7 H :   -0.002842
   8 H :   -0.002662
   9 H :   -0.001798
  10 H :   -0.002234
  11 H :   -0.003128
  12 N :    0.055143
Sum of atomic charges:   -0.0000000

LOEWDIN ATOMIC CHARGES
----------------------
   0 C :   -0.065304
   1 C :    0.008826
   2 C :   -0.016943
   3 C :   -0.005953
   4 C :   -0.017063
   5 C :    0.008954
   6 C :   -0.025528
   7 H :    0.038696
   8 H :    0.034035
   9 H :    0.033076
  10 H :    0.034090
  11 H :    0.038684
  12 N :   -0.065570

  Mayer bond orders larger than 0.100000
B(  0-C ,  1-C ) :   1.3745 B(  0-C ,  5-C ) :   1.3749 B(  0-C ,  6-C ) :   1.0702
B(  1-C ,  2-C ) :   1.3821 B(  1-C ,  7-H ) :   0.9880 B(  2-C ,  3-C ) :   1.3790
B(  2-C ,  8-H ) :   0.9833 B(  3-C ,  4-C ) :   1.3788 B(  3-C ,  9-H ) :   0.9859
B(  4-C ,  5-C ) :   1.3823 B(  4-C , 10-H ) :   0.9832 B(  5-C , 11-H ) :   0.9880
B(  6-C , 12-N ) :   3.0106

Dispersion correction           -0.021292042
FINAL SINGLE POINT ENERGY      -324.078799108996

DIPOLE MOMENT
-------------
                                X             Y             Z
Electronic contribution:      1.05778       4.43287      -0.00007
Nuclear contribution   :     -1.46091      -6.11812       0.00009
                        -----------------------------------------
Total Dipole Moment    :     -0.40313      -1.68526       0.00002
                        -----------------------------------------
Magnitude (a.u.)       :      1.73280
Magnitude (Debye)      :      4.40444

Dispersion correction in the Hessian             ... Starting D4

VIBRATIONAL FREQUENCIES
-----------------------

Scaling factor for frequencies =  1.000000000  (already applied!)

   0:         0.00 cm**-1
   1:         0.00 cm**-1
   2:         0.00 cm**-1
   3:         0.00 cm**-1
   4:         0.00 cm**-1
   5:         0.00 cm**-1
   6:       146.82 cm**-1
   7:       164.89 cm**-1
   8:       393.58 cm**-1
   9:       413.80 cm**-1
  10:       465.79 cm**-1
  11:       563.39 cm**-1
  12:       578.41 cm**-1
  13:       636.99 cm**-1
  14:       715.21 cm**-1
  15:       775.64 cm**-1
  16:       788.26 cm**-1
  17:       866.52 cm**-1
  18:       958.62 cm**-1
  19:      1009.44 cm**-1
  20:      1014.51 cm**-1
  21:      1036.92 cm**-1
  22:      1048.61 cm**-1
  23:      1099.82 cm**-1
  24:      1173.86 cm**-1
  25:      1188.22 cm**-1
  26:      1228.75 cm**-1
  27:      1326.22 cm**-1
  28:      1365.06 cm**-1
  29:      1475.73 cm**-1
  30:      1523.58 cm**-1
  31:      1631.77 cm**-1
  32:      1660.96 cm**-1
  33:      2360.92 cm**-1
  34:      3180.35 cm**-1
  35:      3189.89 cm**-1
  36:      3197.93 cm**-1
  37:      3206.45 cm**-1
  38:      3208.99 cm**-1

IR SPECTRUM
-----------

 Mode   freq       eps      Int      T**2         TX        TY        TZ
       cm**-1   L/(mol*cm) km/mol    a.u.
----------------------------------------------------------------------------
  6:    146.82   0.000352    1.78  0.000748  (-0.000000  0.000002 -0.027351)
  7:    164.89   0.000761    3.85  0.001441  (-0.036894  0.008918 -0.000000)
  8:    393.58   0.000147    0.74  0.000116  (-0.000000 -0.000002 -0.010779)
  9:    413.80   0.000000    0.00  0.000000  (-0.000006  0.000001  0.000007)
 10:    465.79   0.000002    0.01  0.000001  ( 0.000273  0.001012 -0.000000)
 11:    563.39   0.000028    0.14  0.000016  (-0.003812  0.001031  0.000000)
 12:    578.41   0.002887   14.59  0.001557  ( 0.000001  0.000004  0.039465)
 13:    636.99   0.000029    0.15  0.000014  ( 0.003675 -0.000940 -0.000000)
 14:    715.21   0.006187   31.27  0.002700  ( 0.000002  0.000005  0.051957)
 15:    775.64   0.000429    2.17  0.000173  (-0.003048 -0.012781  0.000003)
 16:    788.26   0.004637   23.43  0.001836  (-0.000001  0.000000 -0.042843)
 17:    866.52   0.000000    0.00  0.000000  (-0.000001 -0.000000 -0.000025)
 18:    958.62   0.000435    2.20  0.000142  (-0.000000 -0.000001  0.011905)
 19:   1009.44   0.000000    0.00  0.000000  ( 0.000001 -0.000000  0.000025)
 20:   1014.51   0.000082    0.41  0.000025  ( 0.001175  0.004877 -0.000000)
 21:   1036.92   0.000004    0.02  0.000001  (-0.000000  0.000000 -0.001035)
 22:   1048.61   0.000638    3.22  0.000190  ( 0.003227  0.013394 -0.000000)
 23:   1099.82   0.000784    3.96  0.000223  ( 0.014513 -0.003458 -0.000000)
 24:   1173.86   0.000017    0.09  0.000005  (-0.002075  0.000488  0.000000)
 25:   1188.22   0.000150    0.76  0.000039  (-0.001469 -0.006099  0.000000)
 26:   1228.75   0.000121    0.61  0.000031  (-0.001298 -0.005380  0.000000)
 27:   1326.22   0.000013    0.07  0.000003  (-0.001738  0.000390  0.000000)
 28:   1365.06   0.000391    1.98  0.000089  (-0.009203  0.002160  0.000000)
 29:   1475.73   0.001484    7.50  0.000314  (-0.017230  0.004116  0.000000)
 30:   1523.58   0.001805    9.12  0.000370  ( 0.004462  0.018704 -0.000000)
 31:   1631.77   0.000174    0.88  0.000033  (-0.005620  0.001301  0.000000)
 32:   1660.96   0.000167    0.84  0.000031  (-0.001287 -0.005445  0.000000)
 33:   2360.92   0.005665   28.63  0.000749  ( 0.006342  0.026620 -0.000000)
 34:   3180.35   0.000001    0.01  0.000000  ( 0.000236  0.000237 -0.000000)
 35:   3189.89   0.000700    3.54  0.000068  ( 0.008023 -0.002030 -0.000000)
 36:   3197.93   0.001491    7.53  0.000145  (-0.002586 -0.011781  0.000000)
 37:   3206.45   0.001034    5.23  0.000101  (-0.009860  0.001860  0.000000)
 38:   3208.99   0.000354    1.79  0.000034  ( 0.001098  0.005763 -0.000000)

--------------------------
THERMOCHEMISTRY AT 298.15K
--------------------------

Temperature         ... 298.15 K
Pressure            ... 1.00 atm
Total Mass          ... 103.12 AMU

Throughout the following assumptions are being made:
  (1) The electronic state is orbitally nondegenerate
  (2) There are no thermally accessible electronically excited states
  (3) Hindered rotations indicated by low frequency modes are not
      treated as such but are treated as vibrations and this may
      cause some error
  (4) All equations used are the standard statistical mechanics
      equations for an ideal gas
  (5) All vibrations are strictly harmonic

freq.     146.82  E(vib)   ...       0.41
freq.     164.89  E(vib)   ...       0.39
freq.     393.58  E(vib)   ...       0.20
freq.     413.80  E(vib)   ...       0.19
freq.     465.79  E(vib)   ...       0.16
freq.     563.39  E(vib)   ...       0.11
freq.     578.41  E(vib)   ...       0.11
freq.     636.99  E(vib)   ...       0.09
freq.     715.21  E(vib)   ...       0.07
freq.     775.64  E(vib)   ...       0.05
freq.     788.26  E(vib)   ...       0.05
freq.     866.52  E(vib)   ...       0.04
freq.     958.62  E(vib)   ...       0.03
freq.    1009.44  E(vib)   ...       0.02
freq.    1014.51  E(vib)   ...       0.02
freq.    1036.92  E(vib)   ...       0.02
freq.    1048.61  E(vib)   ...       0.02
freq.    1099.82  E(vib)   ...       0.02
freq.    1173.86  E(vib)   ...       0.01
freq.    1188.22  E(vib)   ...       0.01
freq.    1228.75  E(vib)   ...       0.01
freq.    1326.22  E(vib)   ...       0.01
freq.    1365.06  E(vib)   ...       0.01
freq.    1475.73  E(vib)   ...       0.00
freq.    1523.58  E(vib)   ...       0.00
freq.    1631.77  E(vib)   ...       0.00
freq.    1660.96  E(vib)   ...       0.00
freq.    2360.92  E(vib)   ...       0.00
freq.    3180.35  E(vib)   ...       0.00
freq.    3189.89  E(vib)   ...       0.00
freq.    3197.93  E(vib)   ...       0.00
freq.    3206.45  E(vib)   ...       0.00
freq.    3208.99  E(vib)   ...       0.00

------------
INNER ENERGY
------------

The inner energy is: U= E(el) + E(ZPE) + E(vib) + E(rot) + E(trans)
    E(el)   - is the total energy from the electronic structure calculation
              = E(kin-el) + E(nuc-el) + E(el-el) + E(nuc-nuc)
    E(ZPE)  - the the zero temperature vibrational energy from the frequency calculation
    E(vib)  - the the finite temperature correction to E(ZPE) due to population
              of excited vibrational states
    E(rot)  - is the rotational thermal energy
    E(trans)- is the translational thermal energy

Summary of contributions to the inner energy U:
Electronic energy                ...   -324.07879911 Eh
Zero point energy                ...      0.09931874 Eh      62.32 kcal/mol
Thermal vibrational correction   ...      0.00324520 Eh       2.04 kcal/mol
Thermal rotational correction    ...      0.00141627 Eh       0.89 kcal/mol
Thermal translational correction ...      0.00141627 Eh       0.89 kcal/mol
-----------------------------------------------------------------------
Total thermal energy                   -323.97340263 Eh

Summary of corrections to the electronic energy:
(perhaps to be used in another calculation)
Total thermal correction                  0.00607774 Eh       3.81 kcal/mol
Non-thermal (ZPE) correction              0.09931874 Eh      62.32 kcal/mol
-----------------------------------------------------------------------
Total correction                          0.10539648 Eh      66.14 kcal/mol

--------
ENTHALPY
--------

The enthalpy is H = U + kB*T
                kB is Boltzmann's constant
Total free energy                 ...   -323.97340263 Eh
Thermal Enthalpy correction       ...      0.00094421 Eh       0.59 kcal/mol
-----------------------------------------------------------------------
Total Enthalpy                    ...   -323.97245842 Eh

Note: Rotational entropy computed according to Herzberg
Infrared and Raman Spectra, Chapter V,1, Van Nostrand Reinhold, 1945
Point Group:  Cs, Symmetry Number:   1
Rotational constants in cm-1:     0.187863     0.051251     0.040266

Vibrational entropy computed according to the QRRHO of S. Grimme
Chem.Eur.J. 2012 18 9955

-------
ENTROPY
-------

The entropy contributions are T*S = T*(S(el)+S(vib)+S(rot)+S(trans))
     S(el)   - electronic entropy
     S(vib)  - vibrational entropy
     S(rot)  - rotational entropy
     S(trans)- translational entropy
The entropies will be listed as multiplied by the temperature to get
units of energy

Electronic entropy                ...      0.00000000 Eh      0.00 kcal/mol
Vibrational entropy               ...      0.00513636 Eh      3.22 kcal/mol
Rotational entropy                ...      0.01321923 Eh      8.30 kcal/mol
Translational entropy             ...      0.01891481 Eh     11.87 kcal/mol
-----------------------------------------------------------------------
Final entropy term                ...      0.03727040 Eh     23.39 kcal/mol

In case the symmetry of your molecule has not been determined correctly
or in case you have a reason to use a different symmetry number we print
out the resulting rotational entropy values for sn=1,12 :
 --------------------------------------------------------
|  sn= 1 | S(rot)=       0.01321923 Eh      8.30 kcal/mol|
|  sn= 2 | S(rot)=       0.01256477 Eh      7.88 kcal/mol|
|  sn= 3 | S(rot)=       0.01218194 Eh      7.64 kcal/mol|
|  sn= 4 | S(rot)=       0.01191032 Eh      7.47 kcal/mol|
|  sn= 5 | S(rot)=       0.01169963 Eh      7.34 kcal/mol|
|  sn= 6 | S(rot)=       0.01152748 Eh      7.23 kcal/mol|
|  sn= 7 | S(rot)=       0.01138194 Eh      7.14 kcal/mol|
|  sn= 8 | S(rot)=       0.01125586 Eh      7.06 kcal/mol|
|  sn= 9 | S(rot)=       0.01114465 Eh      6.99 kcal/mol|
|  sn=10 | S(rot)=       0.01104517 Eh      6.93 kcal/mol|
|  sn=11 | S(rot)=       0.01095518 Eh      6.87 kcal/mol|
|  sn=12 | S(rot)=       0.01087303 Eh      6.82 kcal/mol|
 --------------------------------------------------------

-------------------
GIBBS FREE ENERGY
-------------------

The Gibbs free energy is G = H - T*S

Total enthalpy                    ...   -323.97245842 Eh
Total entropy correction          ...     -0.03727040 Eh    -23.39 kcal/mol
-----------------------------------------------------------------------
Final Gibbs free energy         ...   -324.00972882 Eh

For completeness - the Gibbs free energy minus the electronic energy
G-E(el)                           ...      0.06907028 Eh     43.34 kcal/mol

                             ****ORCA TERMINATED NORMALLY****
TOTAL RUN TIME: 0 days 0 hours 30 minutes 28 seconds 613 msec
