                         Program Version 5.0.4 -  RELEASE  -
|  1> !B3LYP DEF2-QZVPP D4 KEEPDENS
|  2>
|  3> %scf
|  4> convergence tight
|  5> end
|  6>
|  7> * xyz 1 2
|  8>   C   -6.19125178160671      1.04578685059177     -0.00000001686577
|  9>   C   -7.37580530487043      0.28825949786031     -0.00000001284834
| 10>   C   -7.33908756893839     -1.10768545106982     -0.00000002576604
| 11>   C   -6.11117938173447     -1.77931819998824      0.00000000290657
| 12>   C   -4.92566072561635     -1.04047352586861      0.00000000533049
| 13>   C   -4.96819058552413      0.35823228576941     -0.00000003398085
| 14>   C   -6.24553993017456      2.55508248967342      0.00000000413099
| 15>   H   -5.23843039862032      2.99755933811265     -0.00000003012539
| 16>   H   -6.78052773252599      2.93791704488256      0.88605739423795
| 17>   H   -6.78052780177066      2.93791706461754     -0.88605733399821
| 18>   H   -8.34213499717683      0.80297272229397      0.00000000580428
| 19>   H   -8.27370961744022     -1.67571619441028     -0.00000001783878
| 20>   H   -6.08022998864363     -2.87249607540980      0.00000001903164
| 21>   H   -3.95993407210113     -1.55389094986220      0.00000004701981
| 22>   H   -4.03307011325617      0.92683310280730     -0.00000000703837
| 23> **                         ****END OF INPUT****

CARTESIAN COORDINATES (ANGSTROEM)
---------------------------------
  C     -6.191252    1.045787   -0.000000
  C     -7.375805    0.288259   -0.000000
  C     -7.339088   -1.107685   -0.000000
  C     -6.111179   -1.779318    0.000000
  C     -4.925661   -1.040474    0.000000
  C     -4.968191    0.358232   -0.000000
  C     -6.245540    2.555082    0.000000
  H     -5.238430    2.997559   -0.000000
  H     -6.780528    2.937917    0.886057
  H     -6.780528    2.937917   -0.886057
  H     -8.342135    0.802973    0.000000
  H     -8.273710   -1.675716   -0.000000
  H     -6.080230   -2.872496    0.000000
  H     -3.959934   -1.553891    0.000000
  H     -4.033070    0.926833   -0.000000

 Total Charge           Charge          ....    1
 Multiplicity           Mult            ....    2
 Number of Electrons    NEL             ....   49
 Basis Dimension        Dim             ....  639

ORBITAL ENERGIES
----------------
                 SPIN UP ORBITALS
  NO   OCC          E(Eh)            E(eV)
   0   1.0000     -10.435287      -283.9586
   1   1.0000     -10.420422      -283.5541
   2   1.0000     -10.397314      -282.9253
   3   1.0000     -10.394775      -282.8562
   4   1.0000     -10.392531      -282.7951
   5   1.0000     -10.389760      -282.7197
   6   1.0000     -10.358438      -281.8674
   7   1.0000      -1.082172       -29.4474
   8   1.0000      -0.993688       -27.0396
   9   1.0000      -0.955926       -26.0121
  10   1.0000      -0.888444       -24.1758
  11   1.0000      -0.820136       -22.3170
  12   1.0000      -0.793273       -21.5861
  13   1.0000      -0.717857       -19.5339
  14   1.0000      -0.676498       -18.4084
  15   1.0000      -0.652912       -17.7666
  16   1.0000      -0.623107       -16.9556
  17   1.0000      -0.623028       -16.9534
  18   1.0000      -0.621146       -16.9023
  19   1.0000      -0.572228       -15.5711
  20   1.0000      -0.571777       -15.5588
  21   1.0000      -0.551206       -14.9991
  22   1.0000      -0.546810       -14.8794
  23   1.0000      -0.480625       -13.0785
  24   1.0000      -0.465534       -12.6678
  25   0.0000      -0.238017        -6.4768
  26   0.0000      -0.222333        -6.0500
  27   0.0000      -0.129204        -3.5158
  28   0.0000      -0.109728        -2.9859
  29   0.0000      -0.097589        -2.6555

                 SPIN DOWN ORBITALS
  NO   OCC          E(Eh)            E(eV)
   0   1.0000     -10.429711      -283.8069
   1   1.0000     -10.414333      -283.3884
   2   1.0000     -10.395590      -282.8784
   3   1.0000     -10.394453      -282.8474
   4   1.0000     -10.391748      -282.7738
   5   1.0000     -10.390289      -282.7341
   6   1.0000     -10.358296      -281.8636
   7   1.0000      -1.071485       -29.1566
   8   1.0000      -0.979106       -26.6428
   9   1.0000      -0.953328       -25.9414
  10   1.0000      -0.881609       -23.9898
  11   1.0000      -0.814477       -22.1631
  12   1.0000      -0.786525       -21.4024
  13   1.0000      -0.714943       -19.4546
  14   1.0000      -0.672761       -18.3068
  15   1.0000      -0.649426       -17.6718
  16   1.0000      -0.622343       -16.9348
  17   1.0000      -0.616861       -16.7856
  18   1.0000      -0.602654       -16.3990
  19   1.0000      -0.570475       -15.5234
  20   1.0000      -0.549340       -14.9483
  21   1.0000      -0.548336       -14.9210
  22   1.0000      -0.543713       -14.7952
  23   1.0000      -0.459664       -12.5081
  24   0.0000      -0.394487       -10.7345
  25   0.0000      -0.209892        -5.7114
  26   0.0000      -0.202469        -5.5095
  27   0.0000      -0.128517        -3.4971
  28   0.0000      -0.108426        -2.9504

MULLIKEN ATOMIC CHARGES AND SPIN POPULATIONS
--------------------------------------------
   0 C :    0.205765    0.367802
   1 C :   -0.012247    0.117726
   2 C :   -0.032900   -0.025070
   3 C :    0.079243    0.408573
   4 C :   -0.018133    0.032940
   5 C :   -0.033154    0.056946
   6 C :   -0.047475   -0.002206
   7 H :    0.073586   -0.000688
   8 H :    0.094911    0.035243
   9 H :    0.094857    0.035218
  10 H :    0.117397   -0.005103
  11 H :    0.117550   -0.001017
  12 H :    0.130563   -0.013906
  13 H :    0.118372   -0.002795
  14 H :    0.111665   -0.003664
Sum of atomic charges         :    1.0000000

LOEWDIN ATOMIC CHARGES AND SPIN POPULATIONS
-------------------------------------------
   0 C :    0.004418    0.264178
   1 C :    0.171135    0.116999
   2 C :    0.148160    0.045725
   3 C :    0.205371    0.271397
   4 C :    0.157816    0.076181
   5 C :    0.161553    0.085477
   6 C :    0.304365    0.057294
   7 H :   -0.027042    0.001177
   8 H :   -0.012090    0.022057
   9 H :   -0.012091    0.022056
  10 H :   -0.018199    0.007321
  11 H :   -0.024599   -0.001925
  12 H :   -0.014252    0.026666
  13 H :   -0.022812    0.001811
  14 H :   -0.021733    0.003585

  Mayer bond orders larger than 0.100000
B(  0-C ,  1-C ) :   1.0578 B(  0-C ,  5-C ) :   1.0951 B(  0-C ,  6-C ) :   0.9919
B(  1-C ,  2-C ) :   1.4465 B(  1-C , 10-H ) :   0.9517 B(  2-C ,  3-C ) :   1.1924
B(  2-C , 11-H ) :   0.9524 B(  3-C ,  4-C ) :   1.1716 B(  3-C , 12-H ) :   0.9449
B(  4-C ,  5-C ) :   1.4458 B(  4-C , 13-H ) :   0.9512 B(  5-C , 14-H ) :   0.9553
B(  6-C ,  7-H ) :   0.9573 B(  6-C ,  8-H ) :   0.9139 B(  6-C ,  9-H ) :   0.9139

Dispersion correction           -0.019930062
FINAL SINGLE POINT ENERGY      -271.205277220995

DIPOLE MOMENT
-------------
                                X             Y             Z
Electronic contribution:      0.10705      -3.58156       0.00000
Nuclear contribution   :     -0.14262       3.54029       0.00000
                        -----------------------------------------
Total Dipole Moment    :     -0.03557      -0.04128       0.00000
                        -----------------------------------------
Magnitude (a.u.)       :      0.05449
Magnitude (Debye)      :      0.13850

Rotational constants in cm-1:     0.183668     0.083310     0.057937
Rotational constants in MHz :  5506.217857  2497.567370  1736.898663

                             ****ORCA TERMINATED NORMALLY****
TOTAL RUN TIME: 0 days 0 hours 54 minutes 9 seconds 276 msec
