                         Program Version 4.2.1 -  RELEASE  -
|  1> !B3LYP DEF2-SVP OPT FREQ
|  2>
|  3> %scf
|  4> Convergence loose
|  5> end
|  6>
|  7> %geom
|  8> Convergence loose
|  9> end
| 10>
| 11> * xyz 1 1
| 12>    C       -6.32863        0.34936       -0.59920
| 13>    C       -6.45053        0.08124       -1.97835
| 14>    C       -6.06815       -1.13868       -2.54582
| 15>    C       -5.52744       -2.13640       -1.74144
| 16>    C       -5.39342       -1.90793       -0.36895
| 17>    C       -5.79438       -0.69065        0.18142
| 18>    C       -6.73243        1.63502        0.07348
| 19>    H       -6.06657        2.46064       -0.21802
| 20>    H       -6.69275        1.51316        1.16606
| 21>    H       -7.74570        1.94970       -0.21384
| 22>    H       -6.20862       -1.27695       -3.61739
| 23>    H       -5.21709       -3.08669       -2.18125
| 24>    H       -4.97802       -2.68371        0.27921
| 25>    H       -5.69297       -0.52865        1.25761
| 26>    N       -7.00089        1.08416       -2.91283
| 27>    O       -7.40575        0.68654       -3.99369
| 28>    O       -7.01217        2.25409       -2.56004
| 29>    H        3.48166        2.10992       -2.30846
| 30> **                         ****END OF INPUT****
 Total Charge           Charge          ....    1
 Multiplicity           Mult            ....    1
 Number of Electrons    NEL             ....   72
FINAL SINGLE POINT ENERGY      -475.450210302716
FINAL SINGLE POINT ENERGY      -475.450249407638
                    ***********************HURRAY********************

CARTESIAN COORDINATES (ANGSTROEM)
---------------------------------
  C     -6.330009    0.349502   -0.597845
  C     -6.450210    0.081587   -1.979483
  C     -6.069879   -1.141283   -2.545643
  C     -5.529168   -2.140213   -1.740417
  C     -5.394515   -1.911292   -0.367232
  C     -5.795517   -0.692592    0.183040
  C     -6.736055    1.635945    0.077896
  H     -6.072471    2.464108   -0.213253
  H     -6.695890    1.513416    1.170461
  H     -7.750207    1.950043   -0.207473
  H     -6.213099   -1.282492   -3.617011
  H     -5.222452   -3.092326   -2.179922
  H     -4.981654   -2.688344    0.281785
  H     -5.696436   -0.532135    1.260150
  N     -6.994689    1.088146   -2.919099
  O     -7.396317    0.691775   -4.001040
  O     -6.998894    2.259052   -2.567270
  H      3.493613    2.121273   -2.319143

 Multiplicity           Mult            ....    1
 Number of Electrons    NEL             ....   72
 Basis Dimension        Dim             ....  180

ORBITAL ENERGIES
----------------

  NO   OCC          E(Eh)            E(eV)
   0   2.0000     -19.209117      -522.7066
   1   2.0000     -19.209054      -522.7049
   2   2.0000     -14.606620      -397.4663
   3   2.0000     -10.299628      -280.2671
   4   2.0000     -10.280770      -279.7540
   5   2.0000     -10.267352      -279.3888
   6   2.0000     -10.267054      -279.3807
   7   2.0000     -10.262926      -279.2684
   8   2.0000     -10.262117      -279.2464
   9   2.0000     -10.245871      -278.8043
  10   2.0000      -1.269867       -34.5548
  11   2.0000      -1.095223       -29.8025
  12   2.0000      -0.934715       -25.4349
  13   2.0000      -0.850080       -23.1319
  14   2.0000      -0.834973       -22.7208
  15   2.0000      -0.762556       -20.7502
  16   2.0000      -0.726833       -19.7781
  17   2.0000      -0.667568       -18.1654
  18   2.0000      -0.637343       -17.3430
  19   2.0000      -0.596477       -16.2310
  20   2.0000      -0.588705       -16.0195
  21   2.0000      -0.558861       -15.2074
  22   2.0000      -0.551987       -15.0203
  23   2.0000      -0.532024       -14.4771
  24   2.0000      -0.506885       -13.7930
  25   2.0000      -0.483358       -13.1528
  26   2.0000      -0.478848       -13.0301
  27   2.0000      -0.452728       -12.3194
  28   2.0000      -0.431331       -11.7371
  29   2.0000      -0.429726       -11.6934
  30   2.0000      -0.421195       -11.4613
  31   2.0000      -0.359570        -9.7844
  32   2.0000      -0.355799        -9.6818
  33   2.0000      -0.345160        -9.3923
  34   2.0000      -0.328997        -8.9525
  35   2.0000      -0.322182        -8.7670
  36   0.0000      -0.525024       -14.2866
  37   0.0000      -0.135994        -3.7006
  38   0.0000      -0.080706        -2.1961
  39   0.0000      -0.058815        -1.6004
  40   0.0000       0.002605         0.0709

MULLIKEN ATOMIC CHARGES
-----------------------
   0 C :   -0.083714
   1 C :    0.117105
   2 C :   -0.003737
   3 C :    0.015128
   4 C :    0.054036
   5 C :   -0.052357
   6 C :    0.132298
   7 H :    0.035664
   8 H :    0.009699
   9 H :    0.035197
  10 H :    0.010247
  11 H :   -0.002202
  12 H :   -0.000981
  13 H :   -0.011512
  14 N :    0.226096
  15 O :   -0.234061
  16 O :   -0.246906
  17 H :    1.000000
Sum of atomic charges:    1.0000000

LOEWDIN ATOMIC CHARGES
----------------------
   0 C :   -0.000406
   1 C :   -0.025797
   2 C :   -0.002529
   3 C :   -0.024446
   4 C :   -0.002969
   5 C :   -0.024468
   6 C :   -0.043843
   7 H :    0.041465
   8 H :    0.027387
   9 H :    0.041675
  10 H :    0.041081
  11 H :    0.033862
  12 H :    0.034365
  13 H :    0.031471
  14 N :    0.273998
  15 O :   -0.199944
  16 O :   -0.200902
  17 H :    1.000000

  Mayer bond orders larger than 0.100000
B(  0-C ,  1-C ) :   1.3683 B(  0-C ,  5-C ) :   1.3822 B(  0-C ,  6-C ) :   1.1065
B(  1-C ,  2-C ) :   1.3800 B(  1-C , 14-N ) :   0.8556 B(  2-C ,  3-C ) :   1.3591
B(  2-C , 10-H ) :   0.9798 B(  3-C ,  4-C ) :   1.3559 B(  3-C , 11-H ) :   0.9837
B(  4-C ,  5-C ) :   1.3776 B(  4-C , 12-H ) :   0.9844 B(  5-C , 13-H ) :   0.9810
B(  6-C ,  7-H ) :   0.9341 B(  6-C ,  8-H ) :   0.9427 B(  6-C ,  9-H ) :   0.9360
B( 14-N , 15-O ) :   1.5465 B( 14-N , 16-O ) :   1.5078 B( 15-O , 16-O ) :   0.2783

FINAL SINGLE POINT ENERGY      -475.450261541274

DIPOLE MOMENT
-------------
                                X             Y             Z
Electronic contribution:      8.20770       3.22966      -7.29715
Nuclear contribution   :     10.83748      -0.45535       7.28006
                        -----------------------------------------
Total Dipole Moment    :     19.04517       2.77431      -0.01710
                        -----------------------------------------
Magnitude (a.u.)       :     19.24619
Magnitude (Debye)      :     48.91992

VIBRATIONAL FREQUENCIES
-----------------------

Scaling factor for frequencies =  1.000000000  (already applied!)

   0:         0.00 cm**-1
   1:         0.00 cm**-1
   2:         0.00 cm**-1
   3:         0.00 cm**-1
   4:         0.00 cm**-1
   5:         0.00 cm**-1
   6:       -26.10 cm**-1 ***imaginary mode***
   7:        10.75 cm**-1
   8:        20.33 cm**-1
   9:        45.82 cm**-1
  10:       138.37 cm**-1
  11:       223.43 cm**-1
  12:       241.00 cm**-1
  13:       266.23 cm**-1
  14:       363.82 cm**-1
  15:       394.60 cm**-1
  16:       443.32 cm**-1
  17:       500.77 cm**-1
  18:       545.23 cm**-1
  19:       570.83 cm**-1
  20:       682.42 cm**-1
  21:       712.09 cm**-1
  22:       752.06 cm**-1
  23:       807.54 cm**-1
  24:       813.44 cm**-1
  25:       883.56 cm**-1
  26:       895.35 cm**-1
  27:       991.64 cm**-1
  28:      1004.26 cm**-1
  29:      1028.37 cm**-1
  30:      1050.54 cm**-1
  31:      1070.47 cm**-1
  32:      1097.31 cm**-1
  33:      1165.99 cm**-1
  34:      1172.34 cm**-1
  35:      1219.45 cm**-1
  36:      1289.30 cm**-1
  37:      1361.59 cm**-1
  38:      1399.33 cm**-1
  39:      1415.57 cm**-1
  40:      1441.55 cm**-1
  41:      1451.69 cm**-1
  42:      1481.63 cm**-1
  43:      1509.86 cm**-1
  44:      1623.16 cm**-1
  45:      1648.90 cm**-1
  46:      1687.15 cm**-1
  47:      3044.84 cm**-1
  48:      3125.06 cm**-1
  49:      3137.08 cm**-1
  50:      3174.62 cm**-1
  51:      3186.89 cm**-1
  52:      3198.26 cm**-1
  53:      3228.29 cm**-1

IR SPECTRUM
-----------

 Mode    freq (cm**-1)   T**2         TX         TY         TZ
-------------------------------------------------------------------
   7:        10.75  636.907493  ( -2.190232  16.759762  18.740885)
   8:        20.33  824.978964  (-15.987065 -18.875346  14.598426)
   9:        45.82    4.484948  (  1.633302  -0.497239  -1.253007)
  10:       138.37    1.039406  (  0.747833   0.518072  -0.460165)
  11:       223.43    0.621649  ( -0.632878  -0.352947  -0.310714)
  12:       241.00    0.156624  ( -0.246754   0.282496  -0.126222)
  13:       266.23    2.587260  (  0.438355  -0.817891  -1.313834)
  14:       363.82    1.374098  ( -0.329249   0.772043  -0.818317)
  15:       394.60    0.371219  ( -0.271980   0.509858   0.193108)
  16:       443.32    0.357690  ( -0.269560  -0.523554   0.104496)
  17:       500.77    3.959828  (  1.783219   0.600899  -0.647208)
  18:       545.23    0.359802  ( -0.293006  -0.441253  -0.281506)
  19:       570.83    0.404972  ( -0.227143   0.578469  -0.136936)
  20:       682.42    6.945004  (  1.303329  -1.512165   1.720376)
  21:       712.09    3.578003  (  1.247980   1.066077  -0.940227)
  22:       752.06   47.099646  (  6.409963   2.095498  -1.273151)
  23:       807.54    5.776962  ( -1.720559   0.504420  -1.600687)
  24:       813.44    4.391872  (  1.761646   1.127714  -0.129362)
  25:       883.56   37.349499  (  2.211571  -3.955924   4.099892)
  26:       895.35    0.675386  ( -0.589914   0.390128  -0.418555)
  27:       991.64    0.934016  (  0.760114  -0.574569   0.161595)
  28:      1004.26    0.752923  (  0.030253   0.206269  -0.842295)
  29:      1028.37    0.533910  (  0.495842  -0.464149   0.269473)
  30:      1050.54    4.368259  ( -1.837123  -0.941560  -0.326654)
  31:      1070.47    4.253452  ( -0.682179   1.907129   0.388513)
  32:      1097.31   14.119418  (  1.105285  -3.374469   1.229114)
  33:      1165.99    5.778302  (  0.652938  -0.322631   2.290826)
  34:      1172.34    4.431218  (  0.520855  -0.586968   1.953304)
  35:      1219.45    7.426218  ( -0.907212   1.749367  -1.882259)
  36:      1289.30    1.858782  (  0.587261  -1.163888  -0.399088)
  37:      1361.59   13.389878  (  0.047769   1.643478   3.269033)
  38:      1399.33   12.905933  ( -0.803487   3.097425  -1.632881)
  39:      1415.57  217.911653  (  5.475098  -9.916792   9.465315)
  40:      1441.55   19.477490  ( -2.281641  -0.050597  -3.777439)
  41:      1451.69    9.549830  (  1.472280   0.981067  -2.533718)
  42:      1481.63   16.704913  ( -0.780409   1.903377  -3.531718)
  43:      1509.86   15.024268  (  1.760071  -3.447804  -0.197662)
  44:      1623.16   18.550314  (  0.249600   4.024130   1.514724)
  45:      1648.90   61.373435  ( -2.641335  -3.995533  -6.199395)
  46:      1687.15  172.782854  (  2.211299   9.664393   8.630905)
  47:      3044.84   10.205172  ( -0.257912   1.893608   2.559864)
  48:      3125.06    5.156963  ( -1.627061  -0.536446   1.490591)
  49:      3137.08   11.513407  (  0.796448   0.033706   3.298172)
  50:      3174.62    2.037504  ( -0.304340   1.000813   0.971213)
  51:      3186.89    8.589592  ( -0.298776  -0.417679  -2.885458)
  52:      3198.26    8.222634  (  1.124837  -2.578476   0.555732)
  53:      3228.29    2.804454  ( -0.681688   0.537408  -1.432113)

--------------------------
THERMOCHEMISTRY AT 298.15K
--------------------------

Temperature         ... 298.15 K
Pressure            ... 1.00 atm
Total Mass          ... 138.15 AMU

Throughout the following assumptions are being made:
  (1) The electronic state is orbitally nondegenerate
  (2) There are no thermally accessible electronically excited states
  (3) Hindered rotations indicated by low frequency modes are not
      treated as such but are treated as vibrations and this may
      cause some error
  (4) All equations used are the standard statistical mechanics
      equations for an ideal gas
  (5) All vibrations are strictly harmonic

freq.      10.75  E(vib)   ...       0.58
freq.      20.33  E(vib)   ...       0.56
freq.      45.82  E(vib)   ...       0.53
freq.     138.37  E(vib)   ...       0.42
freq.     223.43  E(vib)   ...       0.33
freq.     241.00  E(vib)   ...       0.31
freq.     266.23  E(vib)   ...       0.29
freq.     363.82  E(vib)   ...       0.22
freq.     394.60  E(vib)   ...       0.20
freq.     443.32  E(vib)   ...       0.17
freq.     500.77  E(vib)   ...       0.14
freq.     545.23  E(vib)   ...       0.12
freq.     570.83  E(vib)   ...       0.11
freq.     682.42  E(vib)   ...       0.08
freq.     712.09  E(vib)   ...       0.07
freq.     752.06  E(vib)   ...       0.06
freq.     807.54  E(vib)   ...       0.05
freq.     813.44  E(vib)   ...       0.05
freq.     883.56  E(vib)   ...       0.04
freq.     895.35  E(vib)   ...       0.03
freq.     991.64  E(vib)   ...       0.02
freq.    1004.26  E(vib)   ...       0.02
freq.    1028.37  E(vib)   ...       0.02
freq.    1050.54  E(vib)   ...       0.02
freq.    1070.47  E(vib)   ...       0.02
freq.    1097.31  E(vib)   ...       0.02
freq.    1165.99  E(vib)   ...       0.01
freq.    1172.34  E(vib)   ...       0.01
freq.    1219.45  E(vib)   ...       0.01
freq.    1289.30  E(vib)   ...       0.01
freq.    1361.59  E(vib)   ...       0.01
freq.    1399.33  E(vib)   ...       0.00
freq.    1415.57  E(vib)   ...       0.00
freq.    1441.55  E(vib)   ...       0.00
freq.    1451.69  E(vib)   ...       0.00
freq.    1481.63  E(vib)   ...       0.00
freq.    1509.86  E(vib)   ...       0.00
freq.    1623.16  E(vib)   ...       0.00
freq.    1648.90  E(vib)   ...       0.00
freq.    1687.15  E(vib)   ...       0.00
freq.    3044.84  E(vib)   ...       0.00
freq.    3125.06  E(vib)   ...       0.00
freq.    3137.08  E(vib)   ...       0.00
freq.    3174.62  E(vib)   ...       0.00
freq.    3186.89  E(vib)   ...       0.00
freq.    3198.26  E(vib)   ...       0.00
freq.    3228.29  E(vib)   ...       0.00

------------
INNER ENERGY
------------

The inner energy is: U= E(el) + E(ZPE) + E(vib) + E(rot) + E(trans)
    E(el)   - is the total energy from the electronic structure calculation
              = E(kin-el) + E(nuc-el) + E(el-el) + E(nuc-nuc)
    E(ZPE)  - the the zero temperature vibrational energy from the frequency calculation
    E(vib)  - the the finite temperature correction to E(ZPE) due to population
              of excited vibrational states
    E(rot)  - is the rotational thermal energy
    E(trans)- is the translational thermal energy

Summary of contributions to the inner energy U:
Electronic energy                ...   -475.45026154 Eh
Zero point energy                ...      0.13103129 Eh      82.22 kcal/mol
Thermal vibrational correction   ...      0.00723167 Eh       4.54 kcal/mol
Thermal rotational correction    ...      0.00141627 Eh       0.89 kcal/mol
Thermal translational correction ...      0.00141627 Eh       0.89 kcal/mol
-----------------------------------------------------------------------
Total thermal energy                   -475.30916604 Eh

Summary of corrections to the electronic energy:
(perhaps to be used in another calculation)
Total thermal correction                  0.01006421 Eh       6.32 kcal/mol
Non-thermal (ZPE) correction              0.13103129 Eh      82.22 kcal/mol
-----------------------------------------------------------------------
Total correction                          0.14109550 Eh      88.54 kcal/mol

--------
ENTHALPY
--------

The enthalpy is H = U + kB*T
                kB is Boltzmann's constant
Total free energy                 ...   -475.30916604 Eh
Thermal Enthalpy correction       ...      0.00094421 Eh       0.59 kcal/mol
-----------------------------------------------------------------------
Total Enthalpy                    ...   -475.30822183 Eh

Note: Only C1 symmetry has been detected, increase convergence thresholds
      if your molecule has a higher symmetry. Symmetry factor of 1.0 is
      used for the rotational entropy correction.

Note: Rotational entropy computed according to Herzberg
Infrared and Raman Spectra, Chapter V,1, Van Nostrand Reinhold, 1945
Point Group:  C1, Symmetry Number:   1
Rotational constants in cm-1:     0.052212     0.033313     0.027050

Vibrational entropy computed according to the QRRHO of S. Grimme
Chem.Eur.J. 2012 18 9955

-------
ENTROPY
-------

The entropy contributions are T*S = T*(S(el)+S(vib)+S(rot)+S(trans))
     S(el)   - electronic entropy
     S(vib)  - vibrational entropy
     S(rot)  - rotational entropy
     S(trans)- translational entropy
The entropies will be listed as mutliplied by the temperature to get
units of energy

Electronic entropy                ...      0.00000000 Eh      0.00 kcal/mol
Vibrational entropy               ...      0.01343887 Eh      8.43 kcal/mol
Rotational entropy                ...      0.01421487 Eh      8.92 kcal/mol
Translational entropy             ...      0.01932890 Eh     12.13 kcal/mol
-----------------------------------------------------------------------
Final entropy term                ...      0.04698264 Eh     29.48 kcal/mol

In case the symmetry of your molecule has not been determined correctly
or in case you have a reason to use a different symmetry number we print
out the resulting rotational entropy values for sn=1,12 :
 --------------------------------------------------------
|  sn= 1 | S(rot)=       0.01421487 Eh      8.92 kcal/mol|
|  sn= 2 | S(rot)=       0.01356041 Eh      8.51 kcal/mol|
|  sn= 3 | S(rot)=       0.01317758 Eh      8.27 kcal/mol|
|  sn= 4 | S(rot)=       0.01290596 Eh      8.10 kcal/mol|
|  sn= 5 | S(rot)=       0.01269527 Eh      7.97 kcal/mol|
|  sn= 6 | S(rot)=       0.01252312 Eh      7.86 kcal/mol|
|  sn= 7 | S(rot)=       0.01237758 Eh      7.77 kcal/mol|
|  sn= 8 | S(rot)=       0.01225150 Eh      7.69 kcal/mol|
|  sn= 9 | S(rot)=       0.01214029 Eh      7.62 kcal/mol|
|  sn=10 | S(rot)=       0.01204081 Eh      7.56 kcal/mol|
|  sn=11 | S(rot)=       0.01195082 Eh      7.50 kcal/mol|
|  sn=12 | S(rot)=       0.01186867 Eh      7.45 kcal/mol|
 --------------------------------------------------------

-------------------

                             ****ORCA TERMINATED NORMALLY****
TOTAL RUN TIME: 0 days 1 hours 3 minutes 43 seconds 893 msec
