                         Program Version 5.0.4 -  RELEASE  -
|  1> !B3LYP DEF2-QZVPP
|  2>
|  3> %scf
|  4> convergence tight
|  5> end
|  6>
|  7> * xyz 1 2
|  8>   C   -5.45725684070453      1.95593336212858     -0.00001817707546
|  9>   C   -6.54811022711722      1.08628615246483     -0.00001324749663
| 10>   C   -6.30396401004928     -0.28759056034773     -0.00000139831282
| 11>   C   -4.98984572580346     -0.76859455452417      0.00000695999258
| 12>   C   -3.91114170937565      0.12282314461918     -0.00000121662840
| 13>   C   -4.13915123157836      1.49943411470939     -0.00001304778994
| 14>   H   -7.55740354307554      1.49667400814645     -0.00001684062526
| 15>   H   -7.14404322624445     -0.98601755880687      0.00000397226961
| 16>   H   -4.80509894481999     -1.84567629943337      0.00002057733944
| 17>   H   -2.88642805442052     -0.25584437271434      0.00000437523983
| 18>   H   -3.32449720747170      2.22296833592123     -0.00001644865895
| 19>   N   -5.70656998714359      3.41332965011033     -0.00000742911383
| 20>   O   -6.86822400877657      3.78641654026404      0.00002696429634
| 21>   O   -4.73500528341910      4.15158803746246      0.00002495656351
| 22> **                         ****END OF INPUT****

CARTESIAN COORDINATES (ANGSTROEM)
---------------------------------
  C     -5.457257    1.955933   -0.000018
  C     -6.548110    1.086286   -0.000013
  C     -6.303964   -0.287591   -0.000001
  C     -4.989846   -0.768595    0.000007
  C     -3.911142    0.122823   -0.000001
  C     -4.139151    1.499434   -0.000013
  H     -7.557404    1.496674   -0.000017
  H     -7.144043   -0.986018    0.000004
  H     -4.805099   -1.845676    0.000021
  H     -2.886428   -0.255844    0.000004
  H     -3.324497    2.222968   -0.000016
  N     -5.706570    3.413330   -0.000007
  O     -6.868224    3.786417    0.000027
  O     -4.735005    4.151588    0.000025

 Total Charge           Charge          ....    1
 Multiplicity           Mult            ....    2
 Number of Electrons    NEL             ....   63
 Basis Dimension        Dim             ....  663

ORBITAL ENERGIES
----------------
                 SPIN UP ORBITALS
  NO   OCC          E(Eh)            E(eV)
   0   1.0000     -19.346488      -526.4447
   1   1.0000     -19.346140      -526.4352
   2   1.0000     -14.743592      -401.1935
   3   1.0000     -10.499741      -285.7125
   4   1.0000     -10.463659      -284.7306
   5   1.0000     -10.430986      -283.8416
   6   1.0000     -10.430505      -283.8285
   7   1.0000     -10.429844      -283.8105
   8   1.0000     -10.429586      -283.8035
   9   1.0000      -1.420498       -38.6537
  10   1.0000      -1.245821       -33.9005
  11   1.0000      -1.126117       -30.6432
  12   1.0000      -1.040162       -28.3042
  13   1.0000      -0.994879       -27.0720
  14   1.0000      -0.921595       -25.0779
  15   1.0000      -0.858930       -23.3727
  16   1.0000      -0.812477       -22.1086
  17   1.0000      -0.761535       -20.7224
  18   1.0000      -0.731615       -19.9083
  19   1.0000      -0.722777       -19.6678
  20   1.0000      -0.718394       -19.5485
  21   1.0000      -0.683131       -18.5889
  22   1.0000      -0.677767       -18.4430
  23   1.0000      -0.659268       -17.9396
  24   1.0000      -0.628388       -17.0993
  25   1.0000      -0.609680       -16.5902
  26   1.0000      -0.589465       -16.0402
  27   1.0000      -0.533974       -14.5302
  28   1.0000      -0.504405       -13.7256
  29   1.0000      -0.501497       -13.6464
  30   1.0000      -0.494419       -13.4538
  31   1.0000      -0.480648       -13.0791
  32   0.0000      -0.302906        -8.2425
  33   0.0000      -0.254268        -6.9190
  34   0.0000      -0.224380        -6.1057
  35   0.0000      -0.147036        -4.0011
  36   0.0000      -0.109192        -2.9713

                 SPIN DOWN ORBITALS
  NO   OCC          E(Eh)            E(eV)
   0   1.0000     -19.345658      -526.4221
   1   1.0000     -19.345449      -526.4164
   2   1.0000     -14.744189      -401.2098
   3   1.0000     -10.493037      -285.5301
   4   1.0000     -10.457254      -284.5564
   5   1.0000     -10.430335      -283.8239
   6   1.0000     -10.430249      -283.8215
   7   1.0000     -10.429534      -283.8021
   8   1.0000     -10.429242      -283.7941
   9   1.0000      -1.419404       -38.6240
  10   1.0000      -1.244167       -33.8555
  11   1.0000      -1.114900       -30.3380
  12   1.0000      -1.024191       -27.8697
  13   1.0000      -0.992665       -27.0118
  14   1.0000      -0.915353       -24.9080
  15   1.0000      -0.853026       -23.2120
  16   1.0000      -0.807370       -21.9696
  17   1.0000      -0.759903       -20.6780
  18   1.0000      -0.725121       -19.7316
  19   1.0000      -0.719894       -19.5893
  20   1.0000      -0.714957       -19.4550
  21   1.0000      -0.681633       -18.5482
  22   1.0000      -0.674122       -18.3438
  23   1.0000      -0.659084       -17.9346
  24   1.0000      -0.607675       -16.5357
  25   1.0000      -0.597920       -16.2702
  26   1.0000      -0.586474       -15.9588
  27   1.0000      -0.499572       -13.5940
  28   1.0000      -0.499406       -13.5895
  29   1.0000      -0.488579       -13.2949
  30   1.0000      -0.479981       -13.0609
  31   0.0000      -0.441822       -12.0226
  32   0.0000      -0.282613        -7.6903
  33   0.0000      -0.241500        -6.5715
  34   0.0000      -0.203467        -5.5366
  35   0.0000      -0.146034        -3.9738

MULLIKEN ATOMIC CHARGES AND SPIN POPULATIONS
--------------------------------------------
   0 C :    0.176985    0.419078
   1 C :    0.064536    0.006486
   2 C :    0.004778    0.063700
   3 C :    0.077051    0.434317
   4 C :    0.005659    0.053610
   5 C :    0.065008    0.014860
   6 H :    0.151760   -0.001581
   7 H :    0.133754   -0.003748
   8 H :    0.144928   -0.013636
   9 H :    0.132255   -0.003497
  10 H :    0.151928   -0.001756
  11 N :    0.305414   -0.025791
  12 O :   -0.207202    0.026092
  13 O :   -0.206854    0.031864
Sum of atomic charges         :    1.0000000

LOEWDIN ATOMIC CHARGES AND SPIN POPULATIONS
-------------------------------------------
   0 C :   -0.063852    0.286511
   1 C :    0.175248    0.060313
   2 C :    0.179437    0.095109
   3 C :    0.240568    0.303002
   4 C :    0.177816    0.089418
   5 C :    0.176358    0.064903
   6 H :   -0.020175    0.000164
   7 H :   -0.016721    0.003882
   8 H :   -0.005950    0.027317
   9 H :   -0.017058    0.003224
  10 H :   -0.019944    0.000726
  11 N :   -0.259652    0.014880
  12 O :    0.226766    0.022728
  13 O :    0.227161    0.027823

  Mayer bond orders larger than 0.100000
B(  0-C ,  1-C ) :   1.0977 B(  0-C ,  5-C ) :   1.0946 B(  0-C , 11-N ) :   0.8799
B(  1-C ,  2-C ) :   1.4283 B(  1-C ,  6-H ) :   0.9279 B(  2-C ,  3-C ) :   1.1654
B(  2-C ,  7-H ) :   0.9473 B(  3-C ,  4-C ) :   1.1680 B(  3-C ,  8-H ) :   0.9422
B(  4-C ,  5-C ) :   1.4283 B(  4-C ,  9-H ) :   0.9478 B(  5-C , 10-H ) :   0.9280
B( 11-N , 12-O ) :   1.6128 B( 11-N , 13-O ) :   1.6113 B( 12-O , 13-O ) :   0.2974

FINAL SINGLE POINT ENERGY      -436.349611133849

DIPOLE MOMENT
-------------
                                X             Y             Z
Electronic contribution:     -0.74039       4.31734      -0.00002
Nuclear contribution   :      1.31383      -7.66954      -0.00001
                        -----------------------------------------
Total Dipole Moment    :      0.57344      -3.35220      -0.00003
                        -----------------------------------------
Magnitude (a.u.)       :      3.40090
Magnitude (Debye)      :      8.64439

Rotational constants in cm-1:     0.132276     0.042761     0.032315
Rotational constants in MHz :  3965.541854  1281.952840   968.774232

                             ****ORCA TERMINATED NORMALLY****
TOTAL RUN TIME: 0 days 1 hours 7 minutes 26 seconds 215 msec
