                         Program Version 5.0.4 -  RELEASE  -
|  1> !B3LYP DEF2-SVP OPT FREQ D4 SOSCF
|  2>
|  3> %geom
|  4> convergence tight
|  5> end
|  6>
|  7> * xyz 1 1
|  8>   C   -6.13365314899140      0.61505152661642      1.90541479158520
|  9>   C   -6.66110307230404      1.10373424329405      0.68052420305059
| 10>   C   -6.46067066299769      0.41484594766513     -0.48884545505384
| 11>   C   -5.73420726329419     -0.78970004876894     -0.47093385034143
| 12>   C   -5.17358420487416     -1.27878912803937      0.72781908918293
| 13>   C   -5.36999337091810     -0.59293442966711      1.89463095928105
| 14>   C   -6.35694970564776      1.32834589286431      3.17586501142460
| 15>   H   -5.39366711150410      1.66290970381082      3.58925603964312
| 16>   H   -6.76140842564602      0.64703158910716      3.93854154707129
| 17>   H   -7.01043094200828      2.18953824113676      3.07214938968517
| 18>   H   -7.22335619906079      2.02704785702307      0.68306722560751
| 19>   H   -6.86125488776009      0.79178029387370     -1.41917248246674
| 20>   H   -5.62244642507858     -1.36617781098927     -1.37843902218044
| 21>   H   -4.60536373604865     -2.19769961568911      0.71748235719348
| 22>   H   -4.95856463350885     -0.95710017241882      2.82653574401320
| 23>   N   -9.09926683238473     -0.85626174087526    -13.94132873212742
| 24>   O   -8.71052921950867     -0.91822187045438    -12.75201446975389
| 25>   O   -7.96797772543029     -0.93160726352387    -14.49047533794576
| 26> **                         ****END OF INPUT****
 Total Charge           Charge          ....    1
 Multiplicity           Mult            ....    1
 Number of Electrons    NEL             ....   72
Dispersion correction           -0.021543735
FINAL SINGLE POINT ENERGY      -475.624508855679
Dispersion correction            ... Starting D4
Dispersion correction           -0.021440432
FINAL SINGLE POINT ENERGY      -475.625831362743
Dispersion correction            ... Starting D4
Dispersion correction           -0.021424892
FINAL SINGLE POINT ENERGY      -475.625921805228
Dispersion correction            ... Starting D4
FINAL SINGLE POINT ENERGY      -475.625961465260
FINAL SINGLE POINT ENERGY      -475.625980251613
FINAL SINGLE POINT ENERGY      -475.625994657316
FINAL SINGLE POINT ENERGY      -475.626007949771
FINAL SINGLE POINT ENERGY      -475.626020954749
FINAL SINGLE POINT ENERGY      -475.626033848271
FINAL SINGLE POINT ENERGY      -475.626046553168
FINAL SINGLE POINT ENERGY      -475.626339644164
FINAL SINGLE POINT ENERGY      -475.626350264585
FINAL SINGLE POINT ENERGY      -475.626360379999
FINAL SINGLE POINT ENERGY      -475.626369523114
FINAL SINGLE POINT ENERGY      -475.626378166837
FINAL SINGLE POINT ENERGY      -475.626376191858
FINAL SINGLE POINT ENERGY      -475.626387059641
Dispersion correction           -0.021440851
FINAL SINGLE POINT ENERGY      -475.626385977922
Dispersion correction            ... Starting D4
Dispersion correction           -0.021440363
FINAL SINGLE POINT ENERGY      -475.626386852446
Dispersion correction            ... Starting D4
                    ***********************HURRAY********************

CARTESIAN COORDINATES (ANGSTROEM)
---------------------------------
  C     -6.105223    0.671820    2.309185
  C     -6.466477    1.022246    0.973077
  C     -6.084477    0.224253   -0.086624
  C     -5.325893   -0.952550    0.152134
  C     -4.955635   -1.318524    1.468602
  C     -5.337760   -0.523297    2.528688
  C     -6.514012    1.506335    3.461216
  H     -5.646008    1.735369    4.108672
  H     -7.203328    0.931796    4.114999
  H     -7.009849    2.438984    3.163629
  H     -7.048261    1.930719    0.802521
  H     -6.360311    0.490207   -1.109198
  H     -5.027147   -1.581273   -0.690782
  H     -4.371236   -2.225645    1.635778
  H     -5.061277   -0.791911    3.551301
  N     -9.676805   -0.896735  -16.292892
  O     -9.397023   -0.843722  -15.075202
  O     -8.513703   -0.926281  -16.745027

 Multiplicity           Mult            ....    1
 Number of Electrons    NEL             ....   72
 Basis Dimension        Dim             ....  180

ORBITAL ENERGIES
----------------

  NO   OCC          E(Eh)            E(eV)
   0   2.0000     -19.382011      -527.4113
   1   2.0000     -19.381007      -527.3840
   2   2.0000     -14.643372      -398.4664
   3   2.0000     -10.394256      -282.8421
   4   2.0000     -10.382163      -282.5130
   5   2.0000     -10.363352      -282.0011
   6   2.0000     -10.361199      -281.9426
   7   2.0000     -10.359477      -281.8957
   8   2.0000     -10.358099      -281.8582
   9   2.0000     -10.337790      -281.3056
  10   2.0000      -1.395770       -37.9808
  11   2.0000      -1.157298       -31.4917
  12   2.0000      -1.020846       -27.7786
  13   2.0000      -0.933306       -25.3966
  14   2.0000      -0.908379       -24.7182
  15   2.0000      -0.838308       -22.8115
  16   2.0000      -0.781274       -21.2595
  17   2.0000      -0.765140       -20.8205
  18   2.0000      -0.743439       -20.2300
  19   2.0000      -0.671262       -18.2660
  20   2.0000      -0.659451       -17.9446
  21   2.0000      -0.656695       -17.8696
  22   2.0000      -0.647778       -17.6269
  23   2.0000      -0.631377       -17.1806
  24   2.0000      -0.610128       -16.6024
  25   2.0000      -0.587358       -15.9828
  26   2.0000      -0.573481       -15.6052
  27   2.0000      -0.573060       -15.5937
  28   2.0000      -0.538936       -14.6652
  29   2.0000      -0.515535       -14.0284
  30   2.0000      -0.514344       -13.9960
  31   2.0000      -0.502546       -13.6750
  32   2.0000      -0.480716       -13.0809
  33   2.0000      -0.444962       -12.1080
  34   2.0000      -0.424711       -11.5570
  35   2.0000      -0.394050       -10.7226
  36   0.0000      -0.388060       -10.5597
  37   0.0000      -0.220749        -6.0069
  38   0.0000      -0.183034        -4.9806
  39   0.0000      -0.167996        -4.5714
  40   0.0000      -0.070282        -1.9125

MULLIKEN ATOMIC CHARGES
-----------------------
   0 C :   -0.037035
   1 C :    0.042451
   2 C :    0.050805
   3 C :    0.079533
   4 C :    0.046995
   5 C :    0.045383
   6 C :    0.059954
   7 H :    0.085467
   8 H :    0.093784
   9 H :    0.061952
  10 H :    0.037042
  11 H :    0.050610
  12 H :    0.063919
  13 H :    0.051349
  14 H :    0.038789
  15 N :    0.299614
  16 O :   -0.038907
  17 O :   -0.031705
Sum of atomic charges:    1.0000000

LOEWDIN ATOMIC CHARGES
----------------------
   0 C :    0.095670
   1 C :    0.020753
   2 C :    0.028896
   3 C :    0.112093
   4 C :    0.016173
   5 C :    0.036788
   6 C :   -0.027273
   7 H :    0.074151
   8 H :    0.082072
   9 H :    0.051168
  10 H :    0.053117
  11 H :    0.057102
  12 H :    0.059278
  13 H :    0.057458
  14 H :    0.053552
  15 N :    0.156942
  16 O :    0.032546
  17 O :    0.039513

  Mayer bond orders larger than 0.100000
B(  0-C ,  1-C ) :   1.2367 B(  0-C ,  5-C ) :   1.1891 B(  0-C ,  6-C ) :   1.1153
B(  0-C , 16-O ) :   0.1324 B(  0-C , 17-O ) :   0.1328 B(  1-C ,  2-C ) :   1.4739
B(  1-C , 10-H ) :   0.9882 B(  2-C ,  3-C ) :   1.2385 B(  2-C , 11-H ) :   0.9842
B(  3-C ,  4-C ) :   1.2612 B(  3-C , 12-H ) :   0.9823 B(  3-C , 16-O ) :   0.1427
B(  3-C , 17-O ) :   0.1431 B(  4-C ,  5-C ) :   1.4822 B(  4-C , 13-H ) :   0.9857
B(  5-C , 14-H ) :   0.9910 B(  6-C ,  7-H ) :   0.9193 B(  6-C ,  8-H ) :   0.9066
B(  6-C ,  9-H ) :   0.9574 B( 15-N , 16-O ) :   1.3891 B( 15-N , 17-O ) :   1.3950
B( 16-O , 17-O ) :   0.4801

Dispersion correction           -0.021440379
FINAL SINGLE POINT ENERGY      -475.626386828782

DIPOLE MOMENT
-------------
                                X             Y             Z
Electronic contribution:     -6.81579      -4.18254     -42.87173
Nuclear contribution   :      7.31229       4.37308      46.35670
                        -----------------------------------------
Total Dipole Moment    :      0.49650       0.19054       3.48496
                        -----------------------------------------
Magnitude (a.u.)       :      3.52531
Magnitude (Debye)      :      8.96062

Dispersion correction in the Hessian             ... Starting D4

VIBRATIONAL FREQUENCIES
-----------------------

Scaling factor for frequencies =  1.000000000  (already applied!)

   0:         0.00 cm**-1
   1:         0.00 cm**-1
   2:         0.00 cm**-1
   3:         0.00 cm**-1
   4:         0.00 cm**-1
   5:         0.00 cm**-1
   6:       -19.84 cm**-1 ***imaginary mode***
   7:       -15.93 cm**-1 ***imaginary mode***
   8:        -5.16 cm**-1 ***imaginary mode***
   9:        -2.77 cm**-1 ***imaginary mode***
  10:         5.60 cm**-1
  11:        11.45 cm**-1
  12:        18.45 cm**-1
  13:       172.60 cm**-1
  14:       347.88 cm**-1
  15:       371.99 cm**-1
  16:       425.99 cm**-1
  17:       515.48 cm**-1
  18:       535.22 cm**-1
  19:       609.55 cm**-1
  20:       710.30 cm**-1
  21:       751.19 cm**-1
  22:       790.45 cm**-1
  23:       816.33 cm**-1
  24:       835.49 cm**-1
  25:       936.48 cm**-1
  26:       968.30 cm**-1
  27:      1001.90 cm**-1
  28:      1004.79 cm**-1
  29:      1013.71 cm**-1
  30:      1020.16 cm**-1
  31:      1038.70 cm**-1
  32:      1091.70 cm**-1
  33:      1152.41 cm**-1
  34:      1198.41 cm**-1
  35:      1258.16 cm**-1
  36:      1289.68 cm**-1
  37:      1340.58 cm**-1
  38:      1384.42 cm**-1
  39:      1399.63 cm**-1
  40:      1415.12 cm**-1
  41:      1451.39 cm**-1
  42:      1483.86 cm**-1
  43:      1522.51 cm**-1
  44:      1530.82 cm**-1
  45:      1674.58 cm**-1
  46:      2979.72 cm**-1
  47:      3035.48 cm**-1
  48:      3157.42 cm**-1
  49:      3197.03 cm**-1
  50:      3201.19 cm**-1
  51:      3206.28 cm**-1
  52:      3215.53 cm**-1
  53:      3219.67 cm**-1

IR SPECTRUM
-----------

 Mode   freq       eps      Int      T**2         TX        TY        TZ
       cm**-1   L/(mol*cm) km/mol    a.u.
----------------------------------------------------------------------------
 10:      5.60   0.000001    0.01  0.000073  (-0.005385  0.006629  0.000339)
 11:     11.45   0.000113    0.57  0.003084  (-0.006138  0.055053 -0.003893)
 12:     18.45   0.000659    3.33  0.011138  (-0.100322 -0.030452 -0.012079)
 13:    172.60   0.000230    1.16  0.000417  ( 0.015935  0.012516 -0.002471)
 14:    347.88   0.001105    5.58  0.000991  ( 0.008472 -0.005754  0.029769)
 15:    371.99   0.000002    0.01  0.000002  ( 0.001236 -0.000447  0.000525)
 16:    425.99   0.000136    0.69  0.000100  ( 0.006504  0.004168 -0.006314)
 17:    515.48   0.022322  112.81  0.013514  ( 0.018516  0.010952  0.114240)
 18:    535.22   0.010791   54.53  0.006291  ( 0.021230 -0.007214  0.076084)
 19:    609.55   0.004669   23.60  0.002391  (-0.038976 -0.023676  0.017631)
 20:    710.30   1.453422  7345.00  0.638551  ( 0.171408  0.044016  0.779252)
 21:    751.19   0.006384   32.26  0.002652  ( 0.042489  0.028926 -0.003166)
 22:    790.45   0.000849    4.29  0.000335  ( 0.007411  0.001696  0.016658)
 23:    816.33   0.000110    0.56  0.000042  (-0.005519 -0.003099 -0.001399)
 24:    835.49   0.038071  192.40  0.014220  (-0.036719  0.005776  0.113306)
 25:    936.48   0.002106   10.64  0.000702  (-0.006158 -0.000539  0.025759)
 26:    968.30   0.035864  181.24  0.011558  (-0.012070 -0.012277 -0.106122)
 27:   1001.90   0.015014   75.87  0.004676  (-0.005240  0.004134 -0.068057)
 28:   1004.79   0.002832   14.31  0.000879  ( 0.028319  0.008685  0.001437)
 29:   1013.71   0.003543   17.90  0.001091  ( 0.012097 -0.009900  0.029090)
 30:   1020.16   0.000087    0.44  0.000027  ( 0.003274  0.001858 -0.003535)
 31:   1038.70   0.000030    0.15  0.000009  (-0.002149 -0.001722 -0.001142)
 32:   1091.70   0.003538   17.88  0.001011  (-0.015223  0.020115 -0.019362)
 33:   1152.41   0.008932   45.14  0.002419  ( 0.003985  0.008043  0.048354)
 34:   1198.41   0.059231  299.33  0.015424  ( 0.019379  0.010320  0.122236)
 35:   1258.16   0.055813  282.06  0.013843  (-0.013851 -0.014539 -0.115932)
 36:   1289.68   0.041085  207.63  0.009941  ( 0.004246  0.018615  0.097861)
 37:   1340.58   0.059624  301.32  0.013879  (-0.001914 -0.016712 -0.116604)
 38:   1384.42   0.000506    2.56  0.000114  ( 0.010153 -0.001968 -0.002675)
 39:   1399.63   0.002949   14.90  0.000657  ( 0.024586  0.004598  0.005643)
 40:   1415.12   0.006240   31.53  0.001376  (-0.013114  0.020131 -0.028263)
 41:   1451.39   0.023180  117.14  0.004984  ( 0.005040  0.002689  0.070366)
 42:   1483.86   0.048442  244.81  0.010188  (-0.010779  0.041283  0.091472)
 43:   1522.51   0.005282   26.69  0.001083  ( 0.014302 -0.018336  0.023280)
 44:   1530.82   0.088610  447.80  0.018063  (-0.043376 -0.006554 -0.127039)
 45:   1674.58   0.331553  1675.54  0.061786  (-0.042245 -0.017316 -0.244339)
 46:   2979.72   0.121352  613.27  0.012709  (-0.004329 -0.019278 -0.110990)
 47:   3035.48   0.003804   19.23  0.000391  (-0.008127 -0.006483 -0.016824)
 48:   3157.42   0.017399   87.93  0.001720  (-0.001721 -0.009632 -0.040297)
 49:   3197.03   0.000143    0.72  0.000014  ( 0.000228 -0.001520 -0.003409)
 50:   3201.19   0.000017    0.09  0.000002  ( 0.000044 -0.000128  0.001279)
 51:   3206.28   0.001162    5.87  0.000113  (-0.002633  0.000418 -0.010293)
 52:   3215.53   0.000652    3.29  0.000063  ( 0.003695 -0.005025  0.004933)
 53:   3219.67   0.001004    5.08  0.000097  (-0.000503 -0.002157 -0.009615)

--------------------------
THERMOCHEMISTRY AT 298.15K
--------------------------

Temperature         ... 298.15 K
Pressure            ... 1.00 atm
Total Mass          ... 138.15 AMU

Throughout the following assumptions are being made:
  (1) The electronic state is orbitally nondegenerate
  (2) There are no thermally accessible electronically excited states
  (3) Hindered rotations indicated by low frequency modes are not
      treated as such but are treated as vibrations and this may
      cause some error
  (4) All equations used are the standard statistical mechanics
      equations for an ideal gas
  (5) All vibrations are strictly harmonic

freq.       5.60  E(vib)   ...       0.58
freq.      11.45  E(vib)   ...       0.58
freq.      18.45  E(vib)   ...       0.57
freq.     172.60  E(vib)   ...       0.38
freq.     347.88  E(vib)   ...       0.23
freq.     371.99  E(vib)   ...       0.21
freq.     425.99  E(vib)   ...       0.18
freq.     515.48  E(vib)   ...       0.13
freq.     535.22  E(vib)   ...       0.13
freq.     609.55  E(vib)   ...       0.10
freq.     710.30  E(vib)   ...       0.07
freq.     751.19  E(vib)   ...       0.06
freq.     790.45  E(vib)   ...       0.05
freq.     816.33  E(vib)   ...       0.05
freq.     835.49  E(vib)   ...       0.04
freq.     936.48  E(vib)   ...       0.03
freq.     968.30  E(vib)   ...       0.03
freq.    1001.90  E(vib)   ...       0.02
freq.    1004.79  E(vib)   ...       0.02
freq.    1013.71  E(vib)   ...       0.02
freq.    1020.16  E(vib)   ...       0.02
freq.    1038.70  E(vib)   ...       0.02
freq.    1091.70  E(vib)   ...       0.02
freq.    1152.41  E(vib)   ...       0.01
freq.    1198.41  E(vib)   ...       0.01
freq.    1258.16  E(vib)   ...       0.01
freq.    1289.68  E(vib)   ...       0.01
freq.    1340.58  E(vib)   ...       0.01
freq.    1384.42  E(vib)   ...       0.00
freq.    1399.63  E(vib)   ...       0.00
freq.    1415.12  E(vib)   ...       0.00
freq.    1451.39  E(vib)   ...       0.00
freq.    1483.86  E(vib)   ...       0.00
freq.    1522.51  E(vib)   ...       0.00
freq.    1530.82  E(vib)   ...       0.00
freq.    1674.58  E(vib)   ...       0.00
freq.    2979.72  E(vib)   ...       0.00
freq.    3035.48  E(vib)   ...       0.00
freq.    3157.42  E(vib)   ...       0.00
freq.    3197.03  E(vib)   ...       0.00
freq.    3201.19  E(vib)   ...       0.00
freq.    3206.28  E(vib)   ...       0.00
freq.    3215.53  E(vib)   ...       0.00
freq.    3219.67  E(vib)   ...       0.00

------------
INNER ENERGY
------------

The inner energy is: U= E(el) + E(ZPE) + E(vib) + E(rot) + E(trans)
    E(el)   - is the total energy from the electronic structure calculation
              = E(kin-el) + E(nuc-el) + E(el-el) + E(nuc-nuc)
    E(ZPE)  - the the zero temperature vibrational energy from the frequency calculation
    E(vib)  - the the finite temperature correction to E(ZPE) due to population
              of excited vibrational states
    E(rot)  - is the rotational thermal energy
    E(trans)- is the translational thermal energy

Summary of contributions to the inner energy U:
Electronic energy                ...   -475.62638683 Eh
Zero point energy                ...      0.13283449 Eh      83.35 kcal/mol
Thermal vibrational correction   ...      0.00574131 Eh       3.60 kcal/mol
Thermal rotational correction    ...      0.00141627 Eh       0.89 kcal/mol
Thermal translational correction ...      0.00141627 Eh       0.89 kcal/mol
-----------------------------------------------------------------------
Total thermal energy                   -475.48497849 Eh

Summary of corrections to the electronic energy:
(perhaps to be used in another calculation)
Total thermal correction                  0.00857385 Eh       5.38 kcal/mol
Non-thermal (ZPE) correction              0.13283449 Eh      83.35 kcal/mol
-----------------------------------------------------------------------
Total correction                          0.14140834 Eh      88.73 kcal/mol

--------
ENTHALPY
--------

The enthalpy is H = U + kB*T
                kB is Boltzmann's constant
Total free energy                 ...   -475.48497849 Eh
Thermal Enthalpy correction       ...      0.00094421 Eh       0.59 kcal/mol
-----------------------------------------------------------------------
Total Enthalpy                    ...   -475.48403428 Eh

Note: Only C1 symmetry has been detected, increase convergence thresholds
      if your molecule has a higher symmetry. Symmetry factor of 1.0 is
      used for the rotational entropy correction.

Note: Rotational entropy computed according to Herzberg
Infrared and Raman Spectra, Chapter V,1, Van Nostrand Reinhold, 1945
Point Group:  C1, Symmetry Number:   1
Rotational constants in cm-1:     0.106856     0.001675     0.001653

Vibrational entropy computed according to the QRRHO of S. Grimme
Chem.Eur.J. 2012 18 9955

-------
ENTROPY
-------

The entropy contributions are T*S = T*(S(el)+S(vib)+S(rot)+S(trans))
     S(el)   - electronic entropy
     S(vib)  - vibrational entropy
     S(rot)  - rotational entropy
     S(trans)- translational entropy
The entropies will be listed as multiplied by the temperature to get
units of energy

Electronic entropy                ...      0.00000000 Eh      0.00 kcal/mol
Vibrational entropy               ...      0.01167481 Eh      7.33 kcal/mol
Rotational entropy                ...      0.01660797 Eh     10.42 kcal/mol
Translational entropy             ...      0.01932890 Eh     12.13 kcal/mol
-----------------------------------------------------------------------
Final entropy term                ...      0.04761167 Eh     29.88 kcal/mol

In case the symmetry of your molecule has not been determined correctly
or in case you have a reason to use a different symmetry number we print
out the resulting rotational entropy values for sn=1,12 :
 --------------------------------------------------------
|  sn= 1 | S(rot)=       0.01660797 Eh     10.42 kcal/mol|
|  sn= 2 | S(rot)=       0.01595351 Eh     10.01 kcal/mol|
|  sn= 3 | S(rot)=       0.01557068 Eh      9.77 kcal/mol|
|  sn= 4 | S(rot)=       0.01529905 Eh      9.60 kcal/mol|
|  sn= 5 | S(rot)=       0.01508837 Eh      9.47 kcal/mol|
|  sn= 6 | S(rot)=       0.01491622 Eh      9.36 kcal/mol|
|  sn= 7 | S(rot)=       0.01477067 Eh      9.27 kcal/mol|
|  sn= 8 | S(rot)=       0.01464460 Eh      9.19 kcal/mol|
|  sn= 9 | S(rot)=       0.01453339 Eh      9.12 kcal/mol|
|  sn=10 | S(rot)=       0.01443391 Eh      9.06 kcal/mol|
|  sn=11 | S(rot)=       0.01434392 Eh      9.00 kcal/mol|
|  sn=12 | S(rot)=       0.01426176 Eh      8.95 kcal/mol|
 --------------------------------------------------------

-------------------
GIBBS FREE ENERGY
-------------------

                             ****ORCA TERMINATED NORMALLY****
TOTAL RUN TIME: 0 days 4 hours 18 minutes 38 seconds 430 msec
