                         Program Version 5.0.4 -  RELEASE  -
|  1> !B3LYP DEF2-SVP OPT FREQ D4 SOSCF
|  2>
|  3> * xyz 1 1
|  4>    C       -2.73004        1.40068       -0.00092
|  5>    C       -3.42075        0.25143       -0.10131
|  6>    C       -2.70872       -1.01182       -0.38433
|  7>    C       -1.36833       -1.02508       -0.47398
|  8>    C       -0.55686        0.21332       -0.23657
|  9>    C       -1.24906        1.38163       -0.15245
| 10>    H       -4.50270        0.24350       -0.00963
| 11>    H       -3.27390       -1.92632       -0.53374
| 12>    H       -0.87074       -1.96400       -0.69789
| 13>    H       -0.32131        0.06977        0.81644
| 14>    H       -0.72953        2.33592       -0.16764
| 15>    N       -3.40470        2.62916        0.22345
| 16>    H       -4.43027        2.66086        0.32213
| 17>    H       -2.87480        3.50998        0.29215
| 18>    N        0.77711        0.26283       -0.76663
| 19>    O        1.39002        1.28886       -0.79238
| 20>    O        1.31577       -0.74003       -1.12860
| 21> **                         ****END OF INPUT****
 Total Charge           Charge          ....    1
 Multiplicity           Mult            ....    1
 Number of Electrons    NEL             ....   72
Dispersion correction           -0.025964710
FINAL SINGLE POINT ENERGY      -491.742240800092
Dispersion correction            ... Starting D4
Dispersion correction           -0.025969588
FINAL SINGLE POINT ENERGY      -491.777317144665
Dispersion correction            ... Starting D4
Dispersion correction           -0.025984184
FINAL SINGLE POINT ENERGY      -491.785267614973
Dispersion correction            ... Starting D4
FINAL SINGLE POINT ENERGY      -491.786460668931
FINAL SINGLE POINT ENERGY      -491.786516935679
FINAL SINGLE POINT ENERGY      -491.787045184236
FINAL SINGLE POINT ENERGY      -491.787188053984
FINAL SINGLE POINT ENERGY      -491.787339509665
FINAL SINGLE POINT ENERGY      -491.787377826329
Dispersion correction           -0.025872739
FINAL SINGLE POINT ENERGY      -491.787401127191
Dispersion correction            ... Starting D4
Dispersion correction           -0.025867553
FINAL SINGLE POINT ENERGY      -491.787406403864
Dispersion correction            ... Starting D4
                    ***********************HURRAY********************

CARTESIAN COORDINATES (ANGSTROEM)
---------------------------------
  C     -2.694671    1.482092    0.030118
  C     -3.374416    0.236509   -0.173175
  C     -2.721410   -0.993474   -0.364505
  C     -1.347147   -1.055010   -0.394189
  C     -0.591507    0.165432   -0.108323
  C     -1.299018    1.441108   -0.016745
  H     -4.469068    0.247830   -0.204171
  H     -3.319453   -1.893169   -0.525136
  H     -0.795638   -1.979360   -0.579408
  H     -0.196872   -0.027752    0.925686
  H     -0.692751    2.346969    0.057018
  N     -3.391391    2.623856    0.216125
  H     -4.402871    2.638484    0.179166
  H     -2.921080    3.514006    0.325348
  N      0.781314    0.259662   -0.896957
  O      1.243808    1.365101   -0.997059
  O      1.233360   -0.791595   -1.265694

 Multiplicity           Mult            ....    1
 Number of Electrons    NEL             ....   72
 Basis Dimension        Dim             ....  175

ORBITAL ENERGIES
----------------

  NO   OCC          E(Eh)            E(eV)
   0   2.0000     -19.342518      -526.3367
   1   2.0000     -19.342083      -526.3248
   2   2.0000     -14.737832      -401.0368
   3   2.0000     -14.524509      -395.2320
   4   2.0000     -10.448023      -284.3052
   5   2.0000     -10.447601      -284.2937
   6   2.0000     -10.432346      -283.8786
   7   2.0000     -10.423708      -283.6435
   8   2.0000     -10.416538      -283.4484
   9   2.0000     -10.403882      -283.1040
  10   2.0000      -1.405176       -38.2368
  11   2.0000      -1.240014       -33.7425
  12   2.0000      -1.115470       -30.3535
  13   2.0000      -1.058433       -28.8014
  14   2.0000      -0.980521       -26.6813
  15   2.0000      -0.940933       -25.6041
  16   2.0000      -0.871571       -23.7166
  17   2.0000      -0.813140       -22.1267
  18   2.0000      -0.788708       -21.4618
  19   2.0000      -0.739886       -20.1333
  20   2.0000      -0.729938       -19.8626
  21   2.0000      -0.716567       -19.4988
  22   2.0000      -0.700226       -19.0541
  23   2.0000      -0.691407       -18.8141
  24   2.0000      -0.675673       -18.3860
  25   2.0000      -0.649330       -17.6692
  26   2.0000      -0.641731       -17.4624
  27   2.0000      -0.625730       -17.0270
  28   2.0000      -0.586695       -15.9648
  29   2.0000      -0.577090       -15.7034
  30   2.0000      -0.559826       -15.2336
  31   2.0000      -0.507590       -13.8122
  32   2.0000      -0.486661       -13.2427
  33   2.0000      -0.474806       -12.9201
  34   2.0000      -0.472165       -12.8483
  35   2.0000      -0.410557       -11.1718
  36   0.0000      -0.323153        -8.7935
  37   0.0000      -0.227848        -6.2000
  38   0.0000      -0.200524        -5.4565
  39   0.0000      -0.121164        -3.2970
  40   0.0000      -0.111628        -3.0376

MULLIKEN ATOMIC CHARGES
-----------------------
   0 C :    0.090376
   1 C :    0.076432
   2 C :    0.044684
   3 C :    0.029155
   4 C :    0.130028
   5 C :   -0.035397
   6 H :    0.060296
   7 H :    0.069656
   8 H :    0.096755
   9 H :    0.170200
  10 H :    0.069828
  11 N :   -0.025611
  12 H :    0.152194
  13 H :    0.155090
  14 N :    0.213370
  15 O :   -0.149169
  16 O :   -0.147885
Sum of atomic charges:    1.0000000

LOEWDIN ATOMIC CHARGES
----------------------
   0 C :    0.030871
   1 C :    0.123241
   2 C :    0.009032
   3 C :    0.099007
   4 C :    0.002005
   5 C :    0.052486
   6 H :    0.064364
   7 H :    0.068754
   8 H :    0.070030
   9 H :    0.144851
  10 H :    0.061792
  11 N :    0.034363
  12 H :    0.101735
  13 H :    0.103918
  14 N :    0.279258
  15 O :   -0.123519
  16 O :   -0.122188

  Mayer bond orders larger than 0.100000
B(  0-C ,  1-C ) :   1.1967 B(  0-C ,  5-C ) :   1.3580 B(  0-C , 11-N ) :   1.3623
B(  1-C ,  2-C ) :   1.3354 B(  1-C ,  5-C ) :   0.1222 B(  1-C ,  6-H ) :   0.9782
B(  2-C ,  3-C ) :   1.4796 B(  2-C ,  7-H ) :   0.9835 B(  3-C ,  4-C ) :   1.0604
B(  3-C ,  5-C ) :   0.1113 B(  3-C ,  8-H ) :   0.9649 B(  4-C ,  5-C ) :   1.0690
B(  4-C ,  9-H ) :   0.7787 B(  4-C , 14-N ) :   0.7242 B(  5-C , 10-H ) :   0.9699
B( 11-N , 12-H ) :   0.9358 B( 11-N , 13-H ) :   0.9363 B( 14-N , 15-O ) :   1.6015
B( 14-N , 16-O ) :   1.5989 B( 15-O , 16-O ) :   0.2968

Dispersion correction           -0.025866278
FINAL SINGLE POINT ENERGY      -491.787408093658

DIPOLE MOMENT
-------------
                                X             Y             Z
Electronic contribution:      5.50763      -0.90572      -1.79399
Nuclear contribution   :     -8.21750       1.25746       2.87966
                        -----------------------------------------
Total Dipole Moment    :     -2.70986       0.35174       1.08567
                        -----------------------------------------
Magnitude (a.u.)       :      2.94037
Magnitude (Debye)      :      7.47383

Dispersion correction in the Hessian             ... Starting D4

VIBRATIONAL FREQUENCIES
-----------------------

Scaling factor for frequencies =  1.000000000  (already applied!)

   0:         0.00 cm**-1
   1:         0.00 cm**-1
   2:         0.00 cm**-1
   3:         0.00 cm**-1
   4:         0.00 cm**-1
   5:         0.00 cm**-1
   6:        50.07 cm**-1
   7:       100.32 cm**-1
   8:       157.59 cm**-1
   9:       216.85 cm**-1
  10:       317.39 cm**-1
  11:       327.44 cm**-1
  12:       389.57 cm**-1
  13:       391.81 cm**-1
  14:       448.49 cm**-1
  15:       483.40 cm**-1
  16:       511.25 cm**-1
  17:       544.54 cm**-1
  18:       586.13 cm**-1
  19:       651.23 cm**-1
  20:       685.61 cm**-1
  21:       781.21 cm**-1
  22:       825.90 cm**-1
  23:       866.76 cm**-1
  24:       879.49 cm**-1
  25:       945.77 cm**-1
  26:       974.62 cm**-1
  27:       987.72 cm**-1
  28:      1004.97 cm**-1
  29:      1043.95 cm**-1
  30:      1058.96 cm**-1
  31:      1069.44 cm**-1
  32:      1120.57 cm**-1
  33:      1193.50 cm**-1
  34:      1287.85 cm**-1
  35:      1349.27 cm**-1
  36:      1393.68 cm**-1
  37:      1414.96 cm**-1
  38:      1454.52 cm**-1
  39:      1508.01 cm**-1
  40:      1596.11 cm**-1
  41:      1615.11 cm**-1
  42:      1670.23 cm**-1
  43:      1783.59 cm**-1
  44:      2886.21 cm**-1
  45:      3182.49 cm**-1
  46:      3210.54 cm**-1
  47:      3212.03 cm**-1
  48:      3227.21 cm**-1
  49:      3589.13 cm**-1
  50:      3706.51 cm**-1

IR SPECTRUM
-----------

 Mode   freq       eps      Int      T**2         TX        TY        TZ
       cm**-1   L/(mol*cm) km/mol    a.u.
----------------------------------------------------------------------------
  6:     50.07   0.000020    0.10  0.000122  ( 0.005898 -0.009348 -0.000461)
  7:    100.32   0.001254    6.34  0.003902  (-0.060971  0.013489  0.001592)
  8:    157.59   0.000439    2.22  0.000868  ( 0.003469 -0.028803 -0.005179)
  9:    216.85   0.000021    0.11  0.000031  (-0.002615  0.004451  0.002024)
 10:    317.39   0.003001   15.17  0.002951  (-0.019880  0.009898 -0.049577)
 11:    327.44   0.038717  195.66  0.036898  (-0.023514 -0.008621  0.190450)
 12:    389.57   0.001392    7.03  0.001115  (-0.027960 -0.018172 -0.001705)
 13:    391.81   0.000995    5.03  0.000793  ( 0.025206  0.006741  0.010575)
 14:    448.49   0.002360   11.93  0.001642  (-0.000263 -0.005399  0.040163)
 15:    483.40   0.000771    3.90  0.000498  (-0.003369 -0.020983 -0.006785)
 16:    511.25   0.001343    6.79  0.000820  ( 0.013403 -0.016879  0.018848)
 17:    544.54   0.001138    5.75  0.000652  ( 0.002720 -0.004610  0.024966)
 18:    586.13   0.001704    8.61  0.000907  ( 0.028854 -0.001226 -0.008549)
 19:    651.23   0.000253    1.28  0.000121  (-0.008477 -0.007026  0.000338)
 20:    685.61   0.010749   54.32  0.004892  (-0.025474 -0.002252  0.065103)
 21:    781.21   0.000830    4.20  0.000332  (-0.002012 -0.018097 -0.000297)
 22:    825.90   0.023961  121.09  0.009054  ( 0.087485 -0.009689 -0.036141)
 23:    866.76   0.017926   90.59  0.006454  (-0.079192 -0.012692  0.004627)
 24:    879.49   0.017038   86.10  0.006046  (-0.059173 -0.006232  0.050053)
 25:    945.77   0.003650   18.45  0.001204  (-0.026748  0.022071  0.001388)
 26:    974.62   0.002486   12.56  0.000796  ( 0.020608  0.019258 -0.000688)
 27:    987.72   0.001249    6.31  0.000395  (-0.014505 -0.012416  0.005495)
 28:   1004.97   0.001175    5.94  0.000365  ( 0.005288  0.018082  0.003166)
 29:   1043.95   0.000753    3.80  0.000225  ( 0.011962 -0.009001 -0.000941)
 30:   1058.96   0.002408   12.17  0.000710  (-0.018336  0.012350  0.014866)
 31:   1069.44   0.014315   72.34  0.004177  ( 0.062502  0.004847 -0.015721)
 32:   1120.57   0.001655    8.36  0.000461  (-0.015068 -0.015078 -0.002546)
 33:   1193.50   0.000042    0.21  0.000011  (-0.002014 -0.002620 -0.000301)
 34:   1287.85   0.002719   13.74  0.000659  ( 0.024375  0.007099 -0.003786)
 35:   1349.27   0.020991  106.08  0.004855  ( 0.063142 -0.022265 -0.019291)
 36:   1393.68   0.001138    5.75  0.000255  (-0.006111 -0.011455 -0.009285)
 37:   1414.96   0.027733  140.15  0.006116  (-0.070763 -0.010488  0.031608)
 38:   1454.52   0.020398  103.09  0.004376  (-0.061912 -0.021256  0.009566)
 39:   1508.01   0.024157  122.08  0.004999  ( 0.023622 -0.065301 -0.013298)
 40:   1596.11   0.009403   47.52  0.001838  ( 0.031444 -0.029118 -0.001353)
 41:   1615.11   0.005897   29.80  0.001139  ( 0.030660 -0.013474  0.004226)
 42:   1670.23   0.073878  373.35  0.013803  ( 0.048960 -0.104902 -0.020042)
 43:   1783.59   0.043710  220.89  0.007648  (-0.000277 -0.086779 -0.010812)
 44:   2886.21   0.013483   68.14  0.001458  (-0.020144  0.005312 -0.031997)
 45:   3182.49   0.000488    2.47  0.000048  ( 0.004905  0.004829  0.000721)
 46:   3210.54   0.004672   23.61  0.000454  (-0.017045 -0.012771 -0.000733)
 47:   3212.03   0.001444    7.30  0.000140  ( 0.011791 -0.001098 -0.000167)
 48:   3227.21   0.007127   36.01  0.000689  ( 0.009320 -0.024111 -0.004570)
 49:   3589.13   0.040732  205.84  0.003542  ( 0.032419 -0.049382 -0.007212)
 50:   3706.51   0.014534   73.45  0.001224  ( 0.030542  0.016780  0.003042)

--------------------------
THERMOCHEMISTRY AT 298.15K
--------------------------

Temperature         ... 298.15 K
Pressure            ... 1.00 atm
Total Mass          ... 139.13 AMU

Throughout the following assumptions are being made:
  (1) The electronic state is orbitally nondegenerate
  (2) There are no thermally accessible electronically excited states
  (3) Hindered rotations indicated by low frequency modes are not
      treated as such but are treated as vibrations and this may
      cause some error
  (4) All equations used are the standard statistical mechanics
      equations for an ideal gas
  (5) All vibrations are strictly harmonic

freq.      50.07  E(vib)   ...       0.52
freq.     100.32  E(vib)   ...       0.46
freq.     157.59  E(vib)   ...       0.40
freq.     216.85  E(vib)   ...       0.34
freq.     317.39  E(vib)   ...       0.25
freq.     327.44  E(vib)   ...       0.24
freq.     389.57  E(vib)   ...       0.20
freq.     391.81  E(vib)   ...       0.20
freq.     448.49  E(vib)   ...       0.17
freq.     483.40  E(vib)   ...       0.15
freq.     511.25  E(vib)   ...       0.14
freq.     544.54  E(vib)   ...       0.12
freq.     586.13  E(vib)   ...       0.11
freq.     651.23  E(vib)   ...       0.08
freq.     685.61  E(vib)   ...       0.07
freq.     781.21  E(vib)   ...       0.05
freq.     825.90  E(vib)   ...       0.04
freq.     866.76  E(vib)   ...       0.04
freq.     879.49  E(vib)   ...       0.04
freq.     945.77  E(vib)   ...       0.03
freq.     974.62  E(vib)   ...       0.03
freq.     987.72  E(vib)   ...       0.02
freq.    1004.97  E(vib)   ...       0.02
freq.    1043.95  E(vib)   ...       0.02
freq.    1058.96  E(vib)   ...       0.02
freq.    1069.44  E(vib)   ...       0.02
freq.    1120.57  E(vib)   ...       0.01
freq.    1193.50  E(vib)   ...       0.01
freq.    1287.85  E(vib)   ...       0.01
freq.    1349.27  E(vib)   ...       0.01
freq.    1393.68  E(vib)   ...       0.00
freq.    1414.96  E(vib)   ...       0.00
freq.    1454.52  E(vib)   ...       0.00
freq.    1508.01  E(vib)   ...       0.00
freq.    1596.11  E(vib)   ...       0.00
freq.    1615.11  E(vib)   ...       0.00
freq.    1670.23  E(vib)   ...       0.00
freq.    1783.59  E(vib)   ...       0.00
freq.    2886.21  E(vib)   ...       0.00
freq.    3182.49  E(vib)   ...       0.00
freq.    3210.54  E(vib)   ...       0.00
freq.    3212.03  E(vib)   ...       0.00
freq.    3227.21  E(vib)   ...       0.00
freq.    3589.13  E(vib)   ...       0.00
freq.    3706.51  E(vib)   ...       0.00

------------
INNER ENERGY
------------

The inner energy is: U= E(el) + E(ZPE) + E(vib) + E(rot) + E(trans)
    E(el)   - is the total energy from the electronic structure calculation
              = E(kin-el) + E(nuc-el) + E(el-el) + E(nuc-nuc)
    E(ZPE)  - the the zero temperature vibrational energy from the frequency calculation
    E(vib)  - the the finite temperature correction to E(ZPE) due to population
              of excited vibrational states
    E(rot)  - is the rotational thermal energy
    E(trans)- is the translational thermal energy

Summary of contributions to the inner energy U:
Electronic energy                ...   -491.78740809 Eh
Zero point energy                ...      0.12917667 Eh      81.06 kcal/mol
Thermal vibrational correction   ...      0.00610870 Eh       3.83 kcal/mol
Thermal rotational correction    ...      0.00141627 Eh       0.89 kcal/mol
Thermal translational correction ...      0.00141627 Eh       0.89 kcal/mol
-----------------------------------------------------------------------
Total thermal energy                   -491.64929018 Eh

Summary of corrections to the electronic energy:
(perhaps to be used in another calculation)
Total thermal correction                  0.00894124 Eh       5.61 kcal/mol
Non-thermal (ZPE) correction              0.12917667 Eh      81.06 kcal/mol
-----------------------------------------------------------------------
Total correction                          0.13811791 Eh      86.67 kcal/mol

--------
ENTHALPY
--------

The enthalpy is H = U + kB*T
                kB is Boltzmann's constant
Total free energy                 ...   -491.64929018 Eh
Thermal Enthalpy correction       ...      0.00094421 Eh       0.59 kcal/mol
-----------------------------------------------------------------------
Total Enthalpy                    ...   -491.64834597 Eh

Note: Only C1 symmetry has been detected, increase convergence thresholds
      if your molecule has a higher symmetry. Symmetry factor of 1.0 is
      used for the rotational entropy correction.

Note: Rotational entropy computed according to Herzberg
Infrared and Raman Spectra, Chapter V,1, Van Nostrand Reinhold, 1945
Point Group:  C1, Symmetry Number:   1
Rotational constants in cm-1:     0.085263     0.032653     0.024169

Vibrational entropy computed according to the QRRHO of S. Grimme
Chem.Eur.J. 2012 18 9955

-------
ENTROPY
-------

The entropy contributions are T*S = T*(S(el)+S(vib)+S(rot)+S(trans))
     S(el)   - electronic entropy
     S(vib)  - vibrational entropy
     S(rot)  - rotational entropy
     S(trans)- translational entropy
The entropies will be listed as multiplied by the temperature to get
units of energy

Electronic entropy                ...      0.00000000 Eh      0.00 kcal/mol
Vibrational entropy               ...      0.01015218 Eh      6.37 kcal/mol
Rotational entropy                ...      0.01404595 Eh      8.81 kcal/mol
Translational entropy             ...      0.01933899 Eh     12.14 kcal/mol
-----------------------------------------------------------------------
Final entropy term                ...      0.04353713 Eh     27.32 kcal/mol

In case the symmetry of your molecule has not been determined correctly
or in case you have a reason to use a different symmetry number we print
out the resulting rotational entropy values for sn=1,12 :
 --------------------------------------------------------
|  sn= 1 | S(rot)=       0.01404595 Eh      8.81 kcal/mol|
|  sn= 2 | S(rot)=       0.01339150 Eh      8.40 kcal/mol|
|  sn= 3 | S(rot)=       0.01300867 Eh      8.16 kcal/mol|
|  sn= 4 | S(rot)=       0.01273704 Eh      7.99 kcal/mol|
|  sn= 5 | S(rot)=       0.01252635 Eh      7.86 kcal/mol|
|  sn= 6 | S(rot)=       0.01235421 Eh      7.75 kcal/mol|
|  sn= 7 | S(rot)=       0.01220866 Eh      7.66 kcal/mol|
|  sn= 8 | S(rot)=       0.01208259 Eh      7.58 kcal/mol|
|  sn= 9 | S(rot)=       0.01197138 Eh      7.51 kcal/mol|
|  sn=10 | S(rot)=       0.01187190 Eh      7.45 kcal/mol|
|  sn=11 | S(rot)=       0.01178191 Eh      7.39 kcal/mol|
|  sn=12 | S(rot)=       0.01169975 Eh      7.34 kcal/mol|
 --------------------------------------------------------

-------------------
GIBBS FREE ENERGY
-------------------

                             ****ORCA TERMINATED NORMALLY****
TOTAL RUN TIME: 0 days 1 hours 16 minutes 31 seconds 309 msec
