                         Program Version 5.0.4 -  RELEASE  -
|  1> !BP86 cc-pVDZ OPT FREQ D4 cc-pVDZ/C RIJCOSX
|  2>
|  3> * xyz 0 1
|  4>    C       -2.34160        1.21179       -0.50979
|  5>    C       -3.64745        1.57588       -0.12057
|  6>    C       -4.63242        0.60309        0.09151
|  7>    C       -4.32793       -0.76009       -0.08248
|  8>    C       -3.02543       -1.12592       -0.47179
|  9>    C       -2.03778       -0.15792       -0.68514
| 10>    H       -3.90146        2.63877        0.02007
| 11>    H       -5.64621        0.91040        0.39518
| 12>    H       -1.02451       -0.44231       -0.98772
| 13>    H       -2.79381       -2.19187       -0.60619
| 14>    O       -5.24548       -1.76500        0.10994
| 15>    H       -6.08955       -1.34700        0.37423
| 16>    N       -1.39672        2.24615       -0.70333
| 17>    C       -0.06859        2.15034       -1.09021
| 18>    H       -1.75384        3.18939       -0.53985
| 19>    C        0.62380        3.50658       -1.21341
| 20>    H        1.70499        3.32804       -1.39602
| 21>    H        0.49816        4.12018       -0.28627
| 22>    H        0.20078        4.08842       -2.07108
| 23>    O        0.50440        1.08421       -1.32409
| 24> **                         ****END OF INPUT****
 Total Charge           Charge          ....    0
 Multiplicity           Mult            ....    1
 Number of Electrons    NEL             ....   80
Dispersion correction           -0.027152525
FINAL SINGLE POINT ENERGY      -515.557122121672
Dispersion correction            ... Starting D4
Dispersion correction           -0.027153959
FINAL SINGLE POINT ENERGY      -515.557251917870
Dispersion correction            ... Starting D4
                    ***********************HURRAY********************

CARTESIAN COORDINATES (ANGSTROEM)
---------------------------------
  C     -2.341242    1.211734   -0.507274
  C     -3.646680    1.576045   -0.117158
  C     -4.632086    0.603066    0.093200
  C     -4.327788   -0.759852   -0.083711
  C     -3.025420   -1.125936   -0.473271
  C     -2.037528   -0.157818   -0.684641
  H     -3.900314    2.638964    0.025195
  H     -5.645815    0.910448    0.397396
  H     -1.023557   -0.439963   -0.987715
  H     -2.795063   -2.192064   -0.609385
  O     -5.246113   -1.764382    0.106154
  H     -6.090454   -1.347650    0.371192
  N     -1.396572    2.245988   -0.701015
  C     -0.068588    2.150546   -1.088026
  H     -1.753760    3.189288   -0.538703
  C      0.622910    3.506717   -1.215746
  H      1.698503    3.332633   -1.391561
  H      0.494930    4.121541   -0.300758
  H      0.207979    4.079641   -2.071549
  O      0.506008    1.084185   -1.319634

 Multiplicity           Mult            ....    1
 Number of Electrons    NEL             ....   80
 Basis Dimension        Dim             ....  199

ORBITAL ENERGIES
----------------

  NO   OCC          E(Eh)            E(eV)
   0   2.0000     -18.817681      -512.0551
   1   2.0000     -18.755218      -510.3554
   2   2.0000     -14.058540      -382.5523
   3   2.0000     -10.012228      -272.4466
   4   2.0000      -9.971117      -271.3279
   5   2.0000      -9.957168      -270.9483
   6   2.0000      -9.926560      -270.1154
   7   2.0000      -9.925568      -270.0884
   8   2.0000      -9.922432      -270.0031
   9   2.0000      -9.912922      -269.7443
  10   2.0000      -9.911968      -269.7184
  11   2.0000      -0.972104       -26.4523
  12   2.0000      -0.946451       -25.7542
  13   2.0000      -0.859844       -23.3976
  14   2.0000      -0.769588       -20.9416
  15   2.0000      -0.691079       -18.8052
  16   2.0000      -0.680263       -18.5109
  17   2.0000      -0.649987       -17.6870
  18   2.0000      -0.580653       -15.8004
  19   2.0000      -0.555078       -15.1044
  20   2.0000      -0.525793       -14.3076
  21   2.0000      -0.491547       -13.3757
  22   2.0000      -0.476388       -12.9632
  23   2.0000      -0.432750       -11.7757
  24   2.0000      -0.413847       -11.2613
  25   2.0000      -0.405677       -11.0390
  26   2.0000      -0.392235       -10.6732
  27   2.0000      -0.377926       -10.2839
  28   2.0000      -0.370370       -10.0783
  29   2.0000      -0.363893        -9.9020
  30   2.0000      -0.353157        -9.6099
  31   2.0000      -0.346452        -9.4274
  32   2.0000      -0.341406        -9.2901
  33   2.0000      -0.332366        -9.0441
  34   2.0000      -0.300932        -8.1888
  35   2.0000      -0.298651        -8.1267
  36   2.0000      -0.250241        -6.8094
  37   2.0000      -0.229043        -6.2326
  38   2.0000      -0.205592        -5.5945
  39   2.0000      -0.177772        -4.8374
  40   0.0000      -0.041198        -1.1210
  41   0.0000      -0.038628        -1.0511
  42   0.0000       0.008503         0.2314
  43   0.0000       0.019593         0.5332
  44   0.0000       0.024156         0.6573

MULLIKEN ATOMIC CHARGES
-----------------------
   0 C :    0.047445
   1 C :   -0.003606
   2 C :   -0.011020
   3 C :    0.037957
   4 C :    0.031269
   5 C :    0.026718
   6 H :   -0.023124
   7 H :   -0.018152
   8 H :    0.010286
   9 H :   -0.004655
  10 O :   -0.166744
  11 H :    0.149999
  12 N :   -0.105388
  13 C :    0.063823
  14 H :    0.083494
  15 C :   -0.068213
  16 H :    0.063817
  17 H :    0.054702
  18 H :    0.065533
  19 O :   -0.234140
Sum of atomic charges:   -0.0000000

LOEWDIN ATOMIC CHARGES
----------------------
   0 C :   -0.052564
   1 C :   -0.050303
   2 C :   -0.076272
   3 C :   -0.066425
   4 C :   -0.041668
   5 C :   -0.028830
   6 H :    0.026092
   7 H :    0.027189
   8 H :    0.031847
   9 H :    0.036003
  10 O :    0.071813
  11 H :    0.064603
  12 N :    0.145842
  13 C :   -0.141575
  14 H :    0.067871
  15 C :   -0.096597
  16 H :    0.049206
  17 H :    0.040838
  18 H :    0.047037
  19 O :   -0.054108

  Mayer bond orders larger than 0.100000
B(  0-C ,  1-C ) :   1.3703 B(  0-C ,  5-C ) :   1.3924 B(  0-C , 12-N ) :   1.0919
B(  1-C ,  2-C ) :   1.4853 B(  1-C ,  6-H ) :   0.9173 B(  2-C ,  3-C ) :   1.3436
B(  2-C ,  7-H ) :   0.9155 B(  3-C ,  4-C ) :   1.3732 B(  3-C , 10-O ) :   1.2161
B(  4-C ,  5-C ) :   1.4826 B(  4-C ,  9-H ) :   0.9211 B(  5-C ,  8-H ) :   0.9040
B( 10-O , 11-H ) :   0.9933 B( 12-N , 13-C ) :   1.1945 B( 12-N , 14-H ) :   0.9297
B( 13-C , 15-C ) :   1.0331 B( 13-C , 19-O ) :   2.0500 B( 15-C , 16-H ) :   0.9563
B( 15-C , 17-H ) :   0.9508 B( 15-C , 18-H ) :   0.9488

Dispersion correction           -0.027154187
FINAL SINGLE POINT ENERGY      -515.557253860855

DIPOLE MOMENT
-------------
                                X             Y             Z
Electronic contribution:     -2.83424      -5.36186       0.50070
Nuclear contribution   :      1.79901       6.73047      -0.13732
                        -----------------------------------------
Total Dipole Moment    :     -1.03523       1.36861       0.36338
                        -----------------------------------------
Magnitude (a.u.)       :      1.75409
Magnitude (Debye)      :      4.45854

Dispersion correction in the Hessian             ... Starting D4

VIBRATIONAL FREQUENCIES
-----------------------

Scaling factor for frequencies =  1.000000000  (already applied!)

   0:         0.00 cm**-1
   1:         0.00 cm**-1
   2:         0.00 cm**-1
   3:         0.00 cm**-1
   4:         0.00 cm**-1
   5:         0.00 cm**-1
   6:       -54.24 cm**-1 ***imaginary mode***
   7:        56.42 cm**-1
   8:        73.58 cm**-1
   9:       151.04 cm**-1
  10:       170.49 cm**-1
  11:       305.48 cm**-1
  12:       307.97 cm**-1
  13:       354.59 cm**-1
  14:       366.43 cm**-1
  15:       407.66 cm**-1
  16:       408.73 cm**-1
  17:       487.68 cm**-1
  18:       503.58 cm**-1
  19:       508.99 cm**-1
  20:       590.57 cm**-1
  21:       613.78 cm**-1
  22:       637.92 cm**-1
  23:       698.43 cm**-1
  24:       764.79 cm**-1
  25:       775.74 cm**-1
  26:       825.53 cm**-1
  27:       842.30 cm**-1
  28:       871.23 cm**-1
  29:       938.20 cm**-1
  30:       949.89 cm**-1
  31:       958.51 cm**-1
  32:       988.77 cm**-1
  33:       989.39 cm**-1
  34:      1083.15 cm**-1
  35:      1141.33 cm**-1
  36:      1162.95 cm**-1
  37:      1203.15 cm**-1
  38:      1229.02 cm**-1
  39:      1269.13 cm**-1
  40:      1284.07 cm**-1
  41:      1312.15 cm**-1
  42:      1377.51 cm**-1
  43:      1392.58 cm**-1
  44:      1408.49 cm**-1
  45:      1420.54 cm**-1
  46:      1489.90 cm**-1
  47:      1513.91 cm**-1
  48:      1598.27 cm**-1
  49:      1630.09 cm**-1
  50:      1716.34 cm**-1
  51:      2964.55 cm**-1
  52:      3038.88 cm**-1
  53:      3078.05 cm**-1
  54:      3095.90 cm**-1
  55:      3100.56 cm**-1
  56:      3125.38 cm**-1
  57:      3172.24 cm**-1
  58:      3496.11 cm**-1
  59:      3650.79 cm**-1

IR SPECTRUM
-----------

 Mode   freq       eps      Int      T**2         TX        TY        TZ
       cm**-1   L/(mol*cm) km/mol    a.u.
----------------------------------------------------------------------------
  7:     56.42   0.000033    0.17  0.000181  ( 0.003076 -0.000771  0.013091)
  8:     73.58   0.000769    3.88  0.003259  (-0.015922  0.003782 -0.054696)
  9:    151.04   0.000720    3.64  0.001488  ( 0.035088  0.013229 -0.009063)
 10:    170.49   0.000022    0.11  0.000040  ( 0.002225 -0.000095  0.005920)
 11:    305.48   0.001132    5.72  0.001156  (-0.025039 -0.022291  0.005663)
 12:    307.97   0.000044    0.22  0.000044  ( 0.003106 -0.005561 -0.001954)
 13:    354.59   0.018431   93.14  0.016221  ( 0.034227 -0.008348  0.122390)
 14:    366.43   0.000635    3.21  0.000541  (-0.006594  0.001210 -0.022274)
 15:    407.66   0.000151    0.76  0.000116  ( 0.001510 -0.002039  0.010457)
 16:    408.73   0.001891    9.56  0.001444  ( 0.027501  0.025724 -0.005102)
 17:    487.68   0.004128   20.86  0.002642  ( 0.038594  0.032123 -0.010971)
 18:    503.58   0.008575   43.33  0.005314  (-0.021333  0.002242 -0.069667)
 19:    508.99   0.002360   11.93  0.001447  ( 0.009773 -0.002918  0.036648)
 20:    590.57   0.002389   12.07  0.001262  (-0.008987  0.003678 -0.034174)
 21:    613.78   0.000263    1.33  0.000134  (-0.000553 -0.011006 -0.003528)
 22:    637.92   0.000395    1.99  0.000193  ( 0.012071  0.005794 -0.003708)
 23:    698.43   0.000058    0.29  0.000026  ( 0.001152 -0.000435  0.004947)
 24:    764.79   0.003793   19.17  0.001548  ( 0.010934 -0.002089  0.037732)
 25:    775.74   0.002625   13.27  0.001056  ( 0.021957  0.023501 -0.004656)
 26:    825.53   0.005275   26.66  0.001994  ( 0.011877 -0.003095  0.042934)
 27:    842.30   0.001700    8.59  0.000630  ( 0.020346  0.013887 -0.004812)
 28:    871.23   0.000042    0.21  0.000015  (-0.001047  0.000237 -0.003733)
 29:    938.20   0.002932   14.82  0.000975  ( 0.025390  0.016769 -0.007035)
 30:    949.89   0.000113    0.57  0.000037  (-0.002017  0.000374 -0.005730)
 31:    958.51   0.005006   25.30  0.001630  (-0.034680 -0.018544  0.009125)
 32:    988.77   0.000487    2.46  0.000154  ( 0.001300 -0.003444  0.011832)
 33:    989.39   0.000424    2.15  0.000134  (-0.005973 -0.006185  0.007743)
 34:   1083.15   0.003172   16.03  0.000914  ( 0.022516 -0.018744 -0.007455)
 35:   1141.33   0.000872    4.41  0.000238  ( 0.013340  0.007057 -0.003272)
 36:   1162.95   0.034815  175.94  0.009342  (-0.066015 -0.069204  0.013961)
 37:   1203.15   0.012183   61.57  0.003160  (-0.045596 -0.030700  0.011762)
 38:   1229.02   0.012164   61.47  0.003089  (-0.040249 -0.037241  0.009043)
 39:   1269.13   0.006229   31.48  0.001532  (-0.037513 -0.004268  0.010308)
 40:   1284.07   0.005921   29.92  0.001439  ( 0.018146  0.033211 -0.002599)
 41:   1312.15   0.002508   12.67  0.000596  (-0.010143 -0.021983  0.003211)
 42:   1377.51   0.029820  150.70  0.006755  ( 0.074086  0.029576 -0.019797)
 43:   1392.58   0.004346   21.96  0.000974  (-0.029758  0.005442  0.007667)
 44:   1408.49   0.001640    8.29  0.000363  (-0.005849 -0.000609 -0.018132)
 45:   1420.54   0.020400  103.09  0.004481  (-0.055426 -0.035250  0.012919)
 46:   1489.90   0.004597   23.23  0.000963  (-0.012133 -0.028542  0.001005)
 47:   1513.91   0.085061  429.86  0.017534  ( 0.109477  0.069583 -0.026585)
 48:   1598.27   0.006519   32.94  0.001273  (-0.028273 -0.020705  0.006692)
 49:   1630.09   0.000761    3.85  0.000146  (-0.007531 -0.009310  0.001505)
 50:   1716.34   0.041224  208.33  0.007495  ( 0.071672 -0.043072 -0.022434)
 51:   2964.55   0.001824    9.22  0.000192  ( 0.002219  0.013675  0.000188)
 52:   3038.88   0.001998   10.10  0.000205  ( 0.002194  0.001987  0.014017)
 53:   3078.05   0.004511   22.80  0.000457  ( 0.014595  0.015330 -0.003057)
 54:   3095.90   0.003124   15.79  0.000315  ( 0.013394 -0.010749 -0.004462)
 55:   3100.56   0.000739    3.74  0.000074  (-0.008023  0.002311  0.002170)
 56:   3125.38   0.001116    5.64  0.000111  ( 0.000924  0.010508  0.000411)
 57:   3172.24   0.001604    8.11  0.000158  (-0.011497 -0.004065  0.003010)
 58:   3496.11   0.002167   10.95  0.000193  ( 0.007440 -0.011402 -0.002838)
 59:   3650.79   0.010262   51.86  0.000877  ( 0.028403  0.003161 -0.007776)

--------------------------
THERMOCHEMISTRY AT 298.15K
--------------------------

Temperature         ... 298.15 K
Pressure            ... 1.00 atm
Total Mass          ... 151.16 AMU

Throughout the following assumptions are being made:
  (1) The electronic state is orbitally nondegenerate
  (2) There are no thermally accessible electronically excited states
  (3) Hindered rotations indicated by low frequency modes are not
      treated as such but are treated as vibrations and this may
      cause some error
  (4) All equations used are the standard statistical mechanics
      equations for an ideal gas
  (5) All vibrations are strictly harmonic

freq.      56.42  E(vib)   ...       0.52
freq.      73.58  E(vib)   ...       0.49
freq.     151.04  E(vib)   ...       0.40
freq.     170.49  E(vib)   ...       0.38
freq.     305.48  E(vib)   ...       0.26
freq.     307.97  E(vib)   ...       0.26
freq.     354.59  E(vib)   ...       0.22
freq.     366.43  E(vib)   ...       0.22
freq.     407.66  E(vib)   ...       0.19
freq.     408.73  E(vib)   ...       0.19
freq.     487.68  E(vib)   ...       0.15
freq.     503.58  E(vib)   ...       0.14
freq.     508.99  E(vib)   ...       0.14
freq.     590.57  E(vib)   ...       0.10
freq.     613.78  E(vib)   ...       0.10
freq.     637.92  E(vib)   ...       0.09
freq.     698.43  E(vib)   ...       0.07
freq.     764.79  E(vib)   ...       0.06
freq.     775.74  E(vib)   ...       0.05
freq.     825.53  E(vib)   ...       0.04
freq.     842.30  E(vib)   ...       0.04
freq.     871.23  E(vib)   ...       0.04
freq.     938.20  E(vib)   ...       0.03
freq.     949.89  E(vib)   ...       0.03
freq.     958.51  E(vib)   ...       0.03
freq.     988.77  E(vib)   ...       0.02
freq.     989.39  E(vib)   ...       0.02
freq.    1083.15  E(vib)   ...       0.02
freq.    1141.33  E(vib)   ...       0.01
freq.    1162.95  E(vib)   ...       0.01
freq.    1203.15  E(vib)   ...       0.01
freq.    1229.02  E(vib)   ...       0.01
freq.    1269.13  E(vib)   ...       0.01
freq.    1284.07  E(vib)   ...       0.01
freq.    1312.15  E(vib)   ...       0.01
freq.    1377.51  E(vib)   ...       0.01
freq.    1392.58  E(vib)   ...       0.00
freq.    1408.49  E(vib)   ...       0.00
freq.    1420.54  E(vib)   ...       0.00
freq.    1489.90  E(vib)   ...       0.00
freq.    1513.91  E(vib)   ...       0.00
freq.    1598.27  E(vib)   ...       0.00
freq.    1630.09  E(vib)   ...       0.00
freq.    1716.34  E(vib)   ...       0.00
freq.    2964.55  E(vib)   ...       0.00
freq.    3038.88  E(vib)   ...       0.00
freq.    3078.05  E(vib)   ...       0.00
freq.    3095.90  E(vib)   ...       0.00
freq.    3100.56  E(vib)   ...       0.00
freq.    3125.38  E(vib)   ...       0.00
freq.    3172.24  E(vib)   ...       0.00
freq.    3496.11  E(vib)   ...       0.00
freq.    3650.79  E(vib)   ...       0.00

------------
INNER ENERGY
------------

The inner energy is: U= E(el) + E(ZPE) + E(vib) + E(rot) + E(trans)
    E(el)   - is the total energy from the electronic structure calculation
              = E(kin-el) + E(nuc-el) + E(el-el) + E(nuc-nuc)
    E(ZPE)  - the the zero temperature vibrational energy from the frequency calculation
    E(vib)  - the the finite temperature correction to E(ZPE) due to population
              of excited vibrational states
    E(rot)  - is the rotational thermal energy
    E(trans)- is the translational thermal energy

Summary of contributions to the inner energy U:
Electronic energy                ...   -515.55725386 Eh
Zero point energy                ...      0.15378257 Eh      96.50 kcal/mol
Thermal vibrational correction   ...      0.00699486 Eh       4.39 kcal/mol
Thermal rotational correction    ...      0.00141627 Eh       0.89 kcal/mol
Thermal translational correction ...      0.00141627 Eh       0.89 kcal/mol
-----------------------------------------------------------------------
Total thermal energy                   -515.39364389 Eh

Summary of corrections to the electronic energy:
(perhaps to be used in another calculation)
Total thermal correction                  0.00982740 Eh       6.17 kcal/mol
Non-thermal (ZPE) correction              0.15378257 Eh      96.50 kcal/mol
-----------------------------------------------------------------------
Total correction                          0.16360997 Eh     102.67 kcal/mol

--------
ENTHALPY
--------

The enthalpy is H = U + kB*T
                kB is Boltzmann's constant
Total free energy                 ...   -515.39364389 Eh
Thermal Enthalpy correction       ...      0.00094421 Eh       0.59 kcal/mol
-----------------------------------------------------------------------
Total Enthalpy                    ...   -515.39269968 Eh

Note: Only C1 symmetry has been detected, increase convergence thresholds
      if your molecule has a higher symmetry. Symmetry factor of 1.0 is
      used for the rotational entropy correction.

Note: Rotational entropy computed according to Herzberg
Infrared and Raman Spectra, Chapter V,1, Van Nostrand Reinhold, 1945
Point Group:  C1, Symmetry Number:   1
Rotational constants in cm-1:     0.117766     0.018015     0.015672

Vibrational entropy computed according to the QRRHO of S. Grimme
Chem.Eur.J. 2012 18 9955

-------
ENTROPY
-------

The entropy contributions are T*S = T*(S(el)+S(vib)+S(rot)+S(trans))
     S(el)   - electronic entropy
     S(vib)  - vibrational entropy
     S(rot)  - rotational entropy
     S(trans)- translational entropy
The entropies will be listed as multiplied by the temperature to get
units of energy

Electronic entropy                ...      0.00000000 Eh      0.00 kcal/mol
Vibrational entropy               ...      0.01157552 Eh      7.26 kcal/mol
Rotational entropy                ...      0.01437876 Eh      9.02 kcal/mol
Translational entropy             ...      0.01945645 Eh     12.21 kcal/mol
-----------------------------------------------------------------------
Final entropy term                ...      0.04541072 Eh     28.50 kcal/mol

In case the symmetry of your molecule has not been determined correctly
or in case you have a reason to use a different symmetry number we print
out the resulting rotational entropy values for sn=1,12 :
 --------------------------------------------------------
|  sn= 1 | S(rot)=       0.01437876 Eh      9.02 kcal/mol|
|  sn= 2 | S(rot)=       0.01372430 Eh      8.61 kcal/mol|
|  sn= 3 | S(rot)=       0.01334147 Eh      8.37 kcal/mol|
|  sn= 4 | S(rot)=       0.01306985 Eh      8.20 kcal/mol|
|  sn= 5 | S(rot)=       0.01285916 Eh      8.07 kcal/mol|
|  sn= 6 | S(rot)=       0.01268702 Eh      7.96 kcal/mol|
|  sn= 7 | S(rot)=       0.01254147 Eh      7.87 kcal/mol|
|  sn= 8 | S(rot)=       0.01241539 Eh      7.79 kcal/mol|
|  sn= 9 | S(rot)=       0.01230418 Eh      7.72 kcal/mol|
|  sn=10 | S(rot)=       0.01220470 Eh      7.66 kcal/mol|

                             ****ORCA TERMINATED NORMALLY****
TOTAL RUN TIME: 0 days 0 hours 15 minutes 45 seconds 476 msec
