                         Program Version 5.0.4 -  RELEASE  -
|  1> !B3LYP DEF2-QZVPPD D4 KEEPDENS SOSCF
|  2>
|  3> %scf
|  4> convergence tight
|  5> end
|  6>
|  7> * xyz 1 2
|  8>   C   -4.88569336155230      2.98207060676121      0.04333537261272
|  9>   C   -6.14959695789773      2.35864301241116      0.02758592588736
| 10>   C   -6.25559380286015      0.96845232728990     -0.00121869885868
| 11>   C   -5.11290643775582      0.16234415122468     -0.01440284580436
| 12>   C   -3.85586007858743      0.77497453451715      0.00208204091935
| 13>   C   -3.73800009771254      2.16417133781313      0.03090801634500
| 14>   H   -7.05256446988853      2.97652953111245      0.03476026878305
| 15>   H   -7.24815752893036      0.50936420781894     -0.01176333836965
| 16>   H   -5.20066374355790     -0.92621478272232     -0.03568755561573
| 17>   H   -2.94935247147236      0.16323446923219     -0.00589977089820
| 18>   H   -2.74782466200470      2.62955680400795      0.04054469739011
| 19>   N   -4.77400026474504      4.36582607320833      0.02173325533785
| 20>   H   -5.57985384924347      4.88619583261605      0.34871705822918
| 21>   H   -3.89604227379165      4.75045189470918      0.35073557404198
| 22> **                         ****END OF INPUT****

CARTESIAN COORDINATES (ANGSTROEM)
---------------------------------
  C     -4.885693    2.982071    0.043335
  C     -6.149597    2.358643    0.027586
  C     -6.255594    0.968452   -0.001219
  C     -5.112906    0.162344   -0.014403
  C     -3.855860    0.774975    0.002082
  C     -3.738000    2.164171    0.030908
  H     -7.052564    2.976530    0.034760
  H     -7.248158    0.509364   -0.011763
  H     -5.200664   -0.926215   -0.035688
  H     -2.949352    0.163234   -0.005900
  H     -2.747825    2.629557    0.040545
  N     -4.774000    4.365826    0.021733
  H     -5.579854    4.886196    0.348717
  H     -3.896042    4.750452    0.350736

 Total Charge           Charge          ....    1
 Multiplicity           Mult            ....    2
 Number of Electrons    NEL             ....   49
 Basis Dimension        Dim             ....  672

ORBITAL ENERGIES
----------------
                 SPIN UP ORBITALS
  NO   OCC          E(Eh)            E(eV)
   0   1.0000     -14.580305      -396.7503
   1   1.0000     -10.450052      -284.3604
   2   1.0000     -10.392016      -282.7811
   3   1.0000     -10.388505      -282.6856
   4   1.0000     -10.388487      -282.6851
   5   1.0000     -10.376002      -282.3454
   6   1.0000     -10.375988      -282.3450
   7   1.0000      -1.157661       -31.5016
   8   1.0000      -1.051317       -28.6078
   9   1.0000      -0.947970       -25.7956
  10   1.0000      -0.945713       -25.7342
  11   1.0000      -0.820421       -22.3248
  12   1.0000      -0.810601       -22.0576
  13   1.0000      -0.734079       -19.9753
  14   1.0000      -0.730697       -19.8833
  15   1.0000      -0.685450       -18.6520
  16   1.0000      -0.642698       -17.4887
  17   1.0000      -0.631301       -17.1786
  18   1.0000      -0.615687       -16.7537
  19   1.0000      -0.614012       -16.7081
  20   1.0000      -0.560522       -15.2526
  21   1.0000      -0.541755       -14.7419
  22   1.0000      -0.540823       -14.7166
  23   1.0000      -0.456649       -12.4261
  24   1.0000      -0.443205       -12.0602
  25   0.0000      -0.211806        -5.7635
  26   0.0000      -0.211544        -5.7564
  27   0.0000      -0.153932        -4.1887
  28   0.0000      -0.123834        -3.3697
  29   0.0000      -0.117793        -3.2053

                 SPIN DOWN ORBITALS
  NO   OCC          E(Eh)            E(eV)
   0   1.0000     -14.572131      -396.5279
   1   1.0000     -10.448196      -284.3099
   2   1.0000     -10.386890      -282.6416
   3   1.0000     -10.385973      -282.6167
   4   1.0000     -10.385954      -282.6162
   5   1.0000     -10.377066      -282.3743
   6   1.0000     -10.377047      -282.3738
   7   1.0000      -1.143724       -31.1223
   8   1.0000      -1.042950       -28.3801
   9   1.0000      -0.944711       -25.7069
  10   1.0000      -0.932138       -25.3648
  11   1.0000      -0.816774       -22.2255
  12   1.0000      -0.804628       -21.8950
  13   1.0000      -0.731138       -19.8953
  14   1.0000      -0.725460       -19.7408
  15   1.0000      -0.681028       -18.5317
  16   1.0000      -0.639021       -17.3886
  17   1.0000      -0.628313       -17.0973
  18   1.0000      -0.613325       -16.6894
  19   1.0000      -0.586271       -15.9533
  20   1.0000      -0.558022       -15.1846
  21   1.0000      -0.538857       -14.6631
  22   1.0000      -0.506604       -13.7854
  23   1.0000      -0.448768       -12.2116
  24   0.0000      -0.358021        -9.7422
  25   0.0000      -0.200499        -5.4559
  26   0.0000      -0.186365        -5.0712
  27   0.0000      -0.151724        -4.1286
  28   0.0000      -0.122993        -3.3468

MULLIKEN ATOMIC CHARGES AND SPIN POPULATIONS
--------------------------------------------
   0 C :   -0.471505    0.141620
   1 C :    0.156564    0.162873
   2 C :   -0.368587   -0.085693
   3 C :   -0.394171    0.360953
   4 C :   -0.387495   -0.088542
   5 C :    0.164281    0.161145
   6 H :    0.002951   -0.000899
   7 H :    0.951916   -0.000317
   8 H :    0.088096   -0.008294
   9 H :    0.968418   -0.002301
  10 H :    0.004951    0.007036
  11 N :   -0.200348    0.371393
  12 H :    0.242376   -0.009423
  13 H :    0.242552   -0.009552
Sum of atomic charges         :    1.0000000

LOEWDIN ATOMIC CHARGES AND SPIN POPULATIONS
-------------------------------------------
   0 C :   -0.213522    0.153151
   1 C :    0.174334    0.107670
   2 C :    0.154758    0.034142
   3 C :    0.172868    0.192949
   4 C :    0.154787    0.034122
   5 C :    0.174280    0.107668
   6 H :   -0.029417    0.011228
   7 H :   -0.033057   -0.004818
   8 H :   -0.027699    0.026971
   9 H :   -0.033049   -0.004824
  10 H :   -0.029442    0.011232
  11 N :    0.812148    0.265548
  12 H :   -0.138454    0.032476
  13 H :   -0.138535    0.032486

  Mayer bond orders larger than 0.100000
B(  0-C ,  1-C ) :   1.0258 B(  0-C ,  5-C ) :   1.0245 B(  0-C ,  6-H ) :   0.4018
B(  0-C , 10-H ) :   0.4045 B(  0-C , 11-N ) :   1.2102 B(  1-C ,  2-C ) :   1.5790
B(  1-C ,  3-C ) :   0.4387 B(  1-C ,  5-C ) :   0.3475 B(  1-C ,  6-H ) :   0.7136
B(  2-C ,  3-C ) :   1.5250 B(  2-C ,  4-C ) :  -0.2667 B(  2-C ,  6-H ) :   0.3206
B(  2-C ,  8-H ) :   0.2866 B(  3-C ,  4-C ) :   1.5342 B(  3-C ,  5-C ) :   0.4544
B(  3-C ,  8-H ) :   0.7173 B(  4-C ,  5-C ) :   1.5868 B(  4-C ,  8-H ) :   0.3110
B(  4-C , 10-H ) :   0.3308 B(  5-C , 10-H ) :   0.7036 B(  6-H ,  7-H ) :  -0.1771
B(  6-H ,  8-H ) :   0.1690 B(  6-H ,  9-H ) :  -0.2020 B(  6-H , 10-H ) :   0.1955
B(  7-H ,  8-H ) :  -0.1319 B(  7-H ,  9-H ) :   0.2110 B(  7-H , 10-H ) :  -0.2142
B(  8-H ,  9-H ) :  -0.1434 B(  8-H , 10-H ) :   0.1801 B(  9-H , 10-H ) :  -0.1781
B( 11-N , 12-H ) :   0.9292 B( 11-N , 13-H ) :   0.9291

Dispersion correction           -0.018866650
FINAL SINGLE POINT ENERGY      -287.292448359162

DIPOLE MOMENT
-------------
                                X             Y             Z
Electronic contribution:      0.01367       0.16822      -0.19167
Nuclear contribution   :      0.05809       0.72683       0.52928
                        -----------------------------------------
Total Dipole Moment    :      0.07176       0.89504       0.33761
                        -----------------------------------------
Magnitude (a.u.)       :      0.95928
Magnitude (Debye)      :      2.43831

Rotational constants in cm-1:     0.186570     0.086136     0.059004
Rotational constants in MHz :  5593.219850  2582.294403  1768.887501

                             ****ORCA TERMINATED NORMALLY****
TOTAL RUN TIME: 0 days 1 hours 1 minutes 43 seconds 669 msec
