                         Program Version 5.0.4 -  RELEASE  -
|  1> !B3LYP DEF2-SVP OPT FREQ D4
|  2>
|  3> %geom
|  4> optimizeHydrogens true
|  5> end
|  6>
|  7> * xyz 1 1
|  8>    C       -6.30025        0.40796       -0.14520
|  9>    C       -7.09507        1.11466       -1.09396
| 10>    C       -7.18994        0.68720       -2.37423
| 11>    C       -6.54362       -0.56741       -2.78953
| 12>    C       -5.66688       -1.22180       -1.80993
| 13>    C       -5.60704       -0.77075       -0.53145
| 14>    C       -6.26748        0.88585        1.25471
| 15>    H       -7.16987        2.44524        1.30274
| 16>    H       -4.77489        0.83985        1.63162
| 17>    H       -7.31870       -0.35075        2.01001
| 18>    H       -7.58768        2.03108       -0.78753
| 19>    H       -7.75010        1.23633       -3.12045
| 20>    H       -5.09195       -2.07866       -2.13843
| 21>    H       -4.98038       -1.27431        0.19271
| 22>    N       -5.88440       -0.45743       -4.22982
| 23>    O       -4.95744       -1.19509       -4.43710
| 24>    O       -6.40644        0.33077       -4.97337
| 25>    H       -7.35909       -1.28704       -3.00637
| 26> **                         ****END OF INPUT****
 Total Charge           Charge          ....    1
 Multiplicity           Mult            ....    1
 Number of Electrons    NEL             ....   72
Dispersion correction           -0.029249559
FINAL SINGLE POINT ENERGY      -475.502244627429
Dispersion correction            ... Starting D4
Dispersion correction           -0.029048285
FINAL SINGLE POINT ENERGY      -475.547834150929
Dispersion correction            ... Starting D4
Dispersion correction           -0.028552637
FINAL SINGLE POINT ENERGY      -475.593654324798
Dispersion correction            ... Starting D4
FINAL SINGLE POINT ENERGY      -475.627180408329
FINAL SINGLE POINT ENERGY      -475.668049520316
FINAL SINGLE POINT ENERGY      -475.705133294535
FINAL SINGLE POINT ENERGY      -475.736467735586
FINAL SINGLE POINT ENERGY      -475.757022386013
FINAL SINGLE POINT ENERGY      -475.759869046019
FINAL SINGLE POINT ENERGY      -475.749065458267
FINAL SINGLE POINT ENERGY      -475.762173012980
FINAL SINGLE POINT ENERGY      -475.762215040698
FINAL SINGLE POINT ENERGY      -475.762263741516
FINAL SINGLE POINT ENERGY      -475.762328295460
FINAL SINGLE POINT ENERGY      -475.762353435895
FINAL SINGLE POINT ENERGY      -475.762358977128
FINAL SINGLE POINT ENERGY      -475.762364351139
Dispersion correction           -0.027124507
FINAL SINGLE POINT ENERGY      -475.762366182375
Dispersion correction            ... Starting D4
Dispersion correction           -0.027124389
FINAL SINGLE POINT ENERGY      -475.762366219782
Dispersion correction            ... Starting D4
                    ***********************HURRAY********************

CARTESIAN COORDINATES (ANGSTROEM)
---------------------------------
  C     -6.331254    0.403949   -0.141753
  C     -7.157596    1.077821   -1.087463
  C     -7.235724    0.650004   -2.368745
  C     -6.535970   -0.574137   -2.788354
  C     -5.630019   -1.192258   -1.811781
  C     -5.587918   -0.742396   -0.532176
  C     -6.317180    0.879125    1.259393
  H     -6.427201    1.972078    1.328755
  H     -5.434393    0.541102    1.819500
  H     -7.209304    0.446973    1.761160
  H     -7.705699    1.968368   -0.771001
  H     -7.830728    1.174132   -3.121522
  H     -5.023829   -2.038301   -2.146378
  H     -4.945671   -1.234311    0.202066
  N     -5.884403   -0.431728   -4.229286
  O     -4.926489   -1.127725   -4.439884
  O     -6.441459    0.334918   -4.969957
  H     -7.326381   -1.331913   -3.008153

 Multiplicity           Mult            ....    1
 Number of Electrons    NEL             ....   72
 Basis Dimension        Dim             ....  180

ORBITAL ENERGIES
----------------

  NO   OCC          E(Eh)            E(eV)
   0   2.0000     -19.344394      -526.3877
   1   2.0000     -19.344069      -526.3789
   2   2.0000     -14.739722      -401.0882
   3   2.0000     -10.452326      -284.4222
   4   2.0000     -10.449174      -284.3365
   5   2.0000     -10.430304      -283.8230
   6   2.0000     -10.428558      -283.7755
   7   2.0000     -10.404007      -283.1074
   8   2.0000     -10.402932      -283.0782
   9   2.0000     -10.372784      -282.2578
  10   2.0000      -1.407068       -38.2883
  11   2.0000      -1.241431       -33.7811
  12   2.0000      -1.084144       -29.5011
  13   2.0000      -1.004884       -27.3443
  14   2.0000      -0.968596       -26.3568
  15   2.0000      -0.916587       -24.9416
  16   2.0000      -0.831855       -22.6359
  17   2.0000      -0.818024       -22.2596
  18   2.0000      -0.783747       -21.3268
  19   2.0000      -0.737928       -20.0800
  20   2.0000      -0.727933       -19.8081
  21   2.0000      -0.694455       -18.8971
  22   2.0000      -0.685848       -18.6629
  23   2.0000      -0.672437       -18.2979
  24   2.0000      -0.663207       -18.0468
  25   2.0000      -0.641728       -17.4623
  26   2.0000      -0.625235       -17.0135
  27   2.0000      -0.608585       -16.5605
  28   2.0000      -0.576604       -15.6902
  29   2.0000      -0.574961       -15.6455
  30   2.0000      -0.549255       -14.9460
  31   2.0000      -0.528873       -14.3914
  32   2.0000      -0.493736       -13.4352
  33   2.0000      -0.484340       -13.1796
  34   2.0000      -0.473437       -12.8829
  35   2.0000      -0.469872       -12.7859
  36   0.0000      -0.324446        -8.8286
  37   0.0000      -0.230268        -6.2659
  38   0.0000      -0.216646        -5.8952
  39   0.0000      -0.140266        -3.8168
  40   0.0000      -0.110259        -3.0003

MULLIKEN ATOMIC CHARGES
-----------------------
   0 C :   -0.018343
   1 C :    0.047280
   2 C :    0.034748
   3 C :    0.145740
   4 C :    0.035054
   5 C :    0.051426
   6 C :    0.051038
   7 H :    0.087658
   8 H :    0.080445
   9 H :    0.113443
  10 H :    0.054153
  11 H :    0.097210
  12 H :    0.096709
  13 H :    0.054883
  14 N :    0.208493
  15 O :   -0.147643
  16 O :   -0.148233
  17 H :    0.155940
Sum of atomic charges:    1.0000000

LOEWDIN ATOMIC CHARGES
----------------------
   0 C :    0.147691
   1 C :   -0.001490
   2 C :    0.110556
   3 C :    0.000796
   4 C :    0.115951
   5 C :   -0.001663
   6 C :   -0.026118
   7 H :    0.068079
   8 H :    0.061097
   9 H :    0.094957
  10 H :    0.064148
  11 H :    0.071085
  12 H :    0.071498
  13 H :    0.064557
  14 N :    0.277796
  15 O :   -0.122832
  16 O :   -0.123382
  17 H :    0.127275

  Mayer bond orders larger than 0.100000
B(  0-C ,  1-C ) :   1.2186 B(  0-C ,  5-C ) :   1.2262 B(  0-C ,  6-C ) :   1.1149
B(  1-C ,  2-C ) :   1.5898 B(  1-C , 10-H ) :   0.9925 B(  2-C ,  3-C ) :   1.0399
B(  2-C , 11-H ) :   0.9611 B(  3-C ,  4-C ) :   1.0395 B(  3-C , 14-N ) :   0.7263
B(  3-C , 17-H ) :   0.8072 B(  4-C ,  5-C ) :   1.5800 B(  4-C , 12-H ) :   0.9602
B(  5-C , 13-H ) :   0.9911 B(  6-C ,  7-H ) :   0.9387 B(  6-C ,  8-H ) :   0.9488
B(  6-C ,  9-H ) :   0.9015 B( 14-N , 15-O ) :   1.6062 B( 14-N , 16-O ) :   1.5951
B( 15-O , 16-O ) :   0.2950

Dispersion correction           -0.027124338
FINAL SINGLE POINT ENERGY      -475.762366246037

DIPOLE MOMENT
-------------
                                X             Y             Z
Electronic contribution:      1.38961      -1.93258     -10.01472
Nuclear contribution   :     -2.24465       2.00222      12.71070
                        -----------------------------------------
Total Dipole Moment    :     -0.85504       0.06964       2.69598
                        -----------------------------------------
Magnitude (a.u.)       :      2.82918
Magnitude (Debye)      :      7.19120

Dispersion correction in the Hessian             ... Starting D4

VIBRATIONAL FREQUENCIES
-----------------------

Scaling factor for frequencies =  1.000000000  (already applied!)

   0:         0.00 cm**-1
   1:         0.00 cm**-1
   2:         0.00 cm**-1
   3:         0.00 cm**-1
   4:         0.00 cm**-1
   5:         0.00 cm**-1
   6:        36.03 cm**-1
   7:        59.31 cm**-1
   8:        72.22 cm**-1
   9:       193.52 cm**-1
  10:       200.75 cm**-1
  11:       320.68 cm**-1
  12:       339.08 cm**-1
  13:       364.12 cm**-1
  14:       477.01 cm**-1
  15:       493.91 cm**-1
  16:       578.85 cm**-1
  17:       605.14 cm**-1
  18:       628.34 cm**-1
  19:       722.66 cm**-1
  20:       794.06 cm**-1
  21:       800.14 cm**-1
  22:       846.73 cm**-1
  23:       874.77 cm**-1
  24:       919.89 cm**-1
  25:       992.54 cm**-1
  26:      1000.07 cm**-1
  27:      1009.86 cm**-1
  28:      1015.43 cm**-1
  29:      1050.68 cm**-1
  30:      1078.94 cm**-1
  31:      1099.86 cm**-1
  32:      1150.02 cm**-1
  33:      1207.12 cm**-1
  34:      1259.80 cm**-1
  35:      1312.21 cm**-1
  36:      1348.97 cm**-1
  37:      1375.84 cm**-1
  38:      1405.28 cm**-1
  39:      1413.88 cm**-1
  40:      1463.44 cm**-1
  41:      1484.76 cm**-1
  42:      1523.96 cm**-1
  43:      1592.92 cm**-1
  44:      1704.03 cm**-1
  45:      1779.07 cm**-1
  46:      2942.78 cm**-1
  47:      2989.32 cm**-1
  48:      3092.91 cm**-1
  49:      3159.51 cm**-1
  50:      3200.64 cm**-1
  51:      3201.83 cm**-1
  52:      3214.28 cm**-1
  53:      3216.32 cm**-1

IR SPECTRUM
-----------

 Mode   freq       eps      Int      T**2         TX        TY        TZ
       cm**-1   L/(mol*cm) km/mol    a.u.
----------------------------------------------------------------------------
  6:     36.03   0.000005    0.02  0.000043  ( 0.003651  0.005270 -0.001293)
  7:     59.31   0.000657    3.32  0.003457  ( 0.015967  0.024436  0.051035)
  8:     72.22   0.000287    1.45  0.001241  (-0.002371  0.034380 -0.007301)
  9:    193.52   0.000503    2.54  0.000811  (-0.010640 -0.020452 -0.016714)
 10:    200.75   0.000761    3.84  0.001183  (-0.023142  0.024262 -0.007643)
 11:    320.68   0.002260   11.42  0.002199  ( 0.009332 -0.005561 -0.045622)
 12:    339.08   0.000064    0.32  0.000059  ( 0.003401 -0.004666  0.005076)
 13:    364.12   0.000010    0.05  0.000009  (-0.000665 -0.000923  0.002774)
 14:    477.01   0.000419    2.12  0.000274  ( 0.013378  0.003121 -0.009229)
 15:    493.91   0.000271    1.37  0.000171  (-0.003750 -0.009285  0.008432)
 16:    578.85   0.001555    7.86  0.000838  (-0.017205 -0.006863  0.022253)
 17:    605.14   0.001043    5.27  0.000538  (-0.013529  0.017803 -0.006144)
 18:    628.34   0.006041   30.53  0.003000  ( 0.034046  0.018166 -0.038870)
 19:    722.66   0.004277   21.61  0.001847  (-0.032558 -0.027539  0.005324)
 20:    794.06   0.006084   30.75  0.002391  ( 0.003398 -0.009926 -0.047758)
 21:    800.14   0.000112    0.57  0.000044  (-0.004309  0.005004 -0.000231)
 22:    846.73   0.036254  183.21  0.013361  ( 0.039005  0.000268 -0.108812)
 23:    874.77   0.004028   20.36  0.001437  (-0.011570 -0.019092 -0.030636)
 24:    919.89   0.024321  122.91  0.008251  ( 0.016862 -0.011324 -0.088533)
 25:    992.54   0.005486   27.72  0.001725  ( 0.008226  0.004903 -0.040411)
 26:   1000.07   0.000356    1.80  0.000111  ( 0.005653 -0.008670 -0.002001)
 27:   1009.86   0.008182   41.35  0.002528  (-0.028464 -0.007043  0.040848)
 28:   1015.43   0.000764    3.86  0.000235  ( 0.010614 -0.009489 -0.005664)
 29:   1050.68   0.001723    8.71  0.000512  (-0.003404 -0.010602 -0.019690)
 30:   1078.94   0.001292    6.53  0.000374  (-0.012395  0.014389  0.003597)
 31:   1099.86   0.018141   91.68  0.005147  (-0.018480  0.003144  0.069252)
 32:   1150.02   0.001396    7.05  0.000379  (-0.012724  0.014620 -0.001746)
 33:   1207.12   0.005345   27.01  0.001382  ( 0.000066  0.013104  0.034785)
 34:   1259.80   0.005345   27.01  0.001324  ( 0.005315 -0.005858 -0.035518)
 35:   1312.21   0.003070   15.51  0.000730  (-0.017285  0.020751 -0.000784)
 36:   1348.97   0.017201   86.93  0.003979  ( 0.022285 -0.014138 -0.057295)
 37:   1375.84   0.002590   13.09  0.000588  ( 0.004214 -0.015969  0.017741)
 38:   1405.28   0.041358  209.00  0.009184  ( 0.027519 -0.001608 -0.091783)
 39:   1413.88   0.002048   10.35  0.000452  ( 0.009263 -0.018575  0.004603)
 40:   1463.44   0.004682   23.66  0.000998  (-0.017821 -0.001250  0.026063)
 41:   1484.76   0.022600  114.21  0.004750  ( 0.001044  0.014150  0.067444)
 42:   1523.96   0.005795   29.29  0.001187  (-0.020545  0.027582  0.001961)
 43:   1592.92   0.015344   77.54  0.003006  (-0.034092  0.042465 -0.006355)
 44:   1704.03   0.047019  237.62  0.008611  (-0.006860 -0.028966 -0.087890)
 45:   1779.07   0.051663  261.08  0.009062  (-0.066336  0.064184 -0.023284)
 46:   2942.78   0.012448   62.90  0.001320  ( 0.021969  0.024131  0.015970)
 47:   2989.32   0.015426   77.96  0.001610  (-0.008771  0.006543  0.038609)
 48:   3092.91   0.000657    3.32  0.000066  (-0.005340 -0.004647  0.004028)
 49:   3159.51   0.000371    1.87  0.000037  (-0.001782  0.003864  0.004300)
 50:   3200.64   0.000580    2.93  0.000057  ( 0.001550  0.000836  0.007312)
 51:   3201.83   0.001125    5.69  0.000110  ( 0.000254 -0.003905 -0.009714)
 52:   3214.28   0.006161   31.14  0.000598  (-0.015423  0.017291 -0.007830)
 53:   3216.32   0.001604    8.10  0.000156  (-0.004823  0.007175  0.008992)

--------------------------
THERMOCHEMISTRY AT 298.15K
--------------------------

Temperature         ... 298.15 K
Pressure            ... 1.00 atm
Total Mass          ... 138.15 AMU

Throughout the following assumptions are being made:
  (1) The electronic state is orbitally nondegenerate
  (2) There are no thermally accessible electronically excited states
  (3) Hindered rotations indicated by low frequency modes are not
      treated as such but are treated as vibrations and this may
      cause some error
  (4) All equations used are the standard statistical mechanics
      equations for an ideal gas
  (5) All vibrations are strictly harmonic

freq.      36.03  E(vib)   ...       0.54
freq.      59.31  E(vib)   ...       0.51
freq.      72.22  E(vib)   ...       0.50
freq.     193.52  E(vib)   ...       0.36
freq.     200.75  E(vib)   ...       0.35
freq.     320.68  E(vib)   ...       0.25
freq.     339.08  E(vib)   ...       0.23
freq.     364.12  E(vib)   ...       0.22
freq.     477.01  E(vib)   ...       0.15
freq.     493.91  E(vib)   ...       0.14
freq.     578.85  E(vib)   ...       0.11
freq.     605.14  E(vib)   ...       0.10
freq.     628.34  E(vib)   ...       0.09
freq.     722.66  E(vib)   ...       0.07
freq.     794.06  E(vib)   ...       0.05
freq.     800.14  E(vib)   ...       0.05
freq.     846.73  E(vib)   ...       0.04
freq.     874.77  E(vib)   ...       0.04
freq.     919.89  E(vib)   ...       0.03
freq.     992.54  E(vib)   ...       0.02
freq.    1000.07  E(vib)   ...       0.02
freq.    1009.86  E(vib)   ...       0.02
freq.    1015.43  E(vib)   ...       0.02
freq.    1050.68  E(vib)   ...       0.02
freq.    1078.94  E(vib)   ...       0.02
freq.    1099.86  E(vib)   ...       0.02
freq.    1150.02  E(vib)   ...       0.01
freq.    1207.12  E(vib)   ...       0.01
freq.    1259.80  E(vib)   ...       0.01
freq.    1312.21  E(vib)   ...       0.01
freq.    1348.97  E(vib)   ...       0.01
freq.    1375.84  E(vib)   ...       0.01
freq.    1405.28  E(vib)   ...       0.00
freq.    1413.88  E(vib)   ...       0.00
freq.    1463.44  E(vib)   ...       0.00
freq.    1484.76  E(vib)   ...       0.00
freq.    1523.96  E(vib)   ...       0.00
freq.    1592.92  E(vib)   ...       0.00
freq.    1704.03  E(vib)   ...       0.00
freq.    1779.07  E(vib)   ...       0.00
freq.    2942.78  E(vib)   ...       0.00
freq.    2989.32  E(vib)   ...       0.00
freq.    3092.91  E(vib)   ...       0.00
freq.    3159.51  E(vib)   ...       0.00
freq.    3200.64  E(vib)   ...       0.00
freq.    3201.83  E(vib)   ...       0.00
freq.    3214.28  E(vib)   ...       0.00
freq.    3216.32  E(vib)   ...       0.00

------------
INNER ENERGY
------------

The inner energy is: U= E(el) + E(ZPE) + E(vib) + E(rot) + E(trans)
    E(el)   - is the total energy from the electronic structure calculation
              = E(kin-el) + E(nuc-el) + E(el-el) + E(nuc-nuc)
    E(ZPE)  - the the zero temperature vibrational energy from the frequency calculation
    E(vib)  - the the finite temperature correction to E(ZPE) due to population
              of excited vibrational states
    E(rot)  - is the rotational thermal energy
    E(trans)- is the translational thermal energy

Summary of contributions to the inner energy U:
Electronic energy                ...   -475.76236625 Eh
Zero point energy                ...      0.14036579 Eh      88.08 kcal/mol
Thermal vibrational correction   ...      0.00643850 Eh       4.04 kcal/mol
Thermal rotational correction    ...      0.00141627 Eh       0.89 kcal/mol
Thermal translational correction ...      0.00141627 Eh       0.89 kcal/mol
-----------------------------------------------------------------------
Total thermal energy                   -475.61272942 Eh

Summary of corrections to the electronic energy:
(perhaps to be used in another calculation)
Total thermal correction                  0.00927104 Eh       5.82 kcal/mol
Non-thermal (ZPE) correction              0.14036579 Eh      88.08 kcal/mol
-----------------------------------------------------------------------
Total correction                          0.14963683 Eh      93.90 kcal/mol

--------
ENTHALPY
--------

The enthalpy is H = U + kB*T
                kB is Boltzmann's constant
Total free energy                 ...   -475.61272942 Eh
Thermal Enthalpy correction       ...      0.00094421 Eh       0.59 kcal/mol
-----------------------------------------------------------------------
Total Enthalpy                    ...   -475.61178521 Eh

Note: Only C1 symmetry has been detected, increase convergence thresholds
      if your molecule has a higher symmetry. Symmetry factor of 1.0 is
      used for the rotational entropy correction.

Note: Rotational entropy computed according to Herzberg
Infrared and Raman Spectra, Chapter V,1, Van Nostrand Reinhold, 1945
Point Group:  C1, Symmetry Number:   1
Rotational constants in cm-1:     0.113454     0.027931     0.023410

Vibrational entropy computed according to the QRRHO of S. Grimme
Chem.Eur.J. 2012 18 9955

-------
ENTROPY
-------

The entropy contributions are T*S = T*(S(el)+S(vib)+S(rot)+S(trans))
     S(el)   - electronic entropy
     S(vib)  - vibrational entropy
     S(rot)  - rotational entropy
     S(trans)- translational entropy
The entropies will be listed as multiplied by the temperature to get
units of energy

Electronic entropy                ...      0.00000000 Eh      0.00 kcal/mol
Vibrational entropy               ...      0.01114813 Eh      7.00 kcal/mol
Rotational entropy                ...      0.01399991 Eh      8.79 kcal/mol
Translational entropy             ...      0.01932890 Eh     12.13 kcal/mol
-----------------------------------------------------------------------
Final entropy term                ...      0.04447694 Eh     27.91 kcal/mol

In case the symmetry of your molecule has not been determined correctly
or in case you have a reason to use a different symmetry number we print
out the resulting rotational entropy values for sn=1,12 :
 --------------------------------------------------------
|  sn= 1 | S(rot)=       0.01399991 Eh      8.79 kcal/mol|
|  sn= 2 | S(rot)=       0.01334546 Eh      8.37 kcal/mol|
|  sn= 3 | S(rot)=       0.01296262 Eh      8.13 kcal/mol|
|  sn= 4 | S(rot)=       0.01269100 Eh      7.96 kcal/mol|
|  sn= 5 | S(rot)=       0.01248031 Eh      7.83 kcal/mol|
|  sn= 6 | S(rot)=       0.01230817 Eh      7.72 kcal/mol|
|  sn= 7 | S(rot)=       0.01216262 Eh      7.63 kcal/mol|
|  sn= 8 | S(rot)=       0.01203654 Eh      7.55 kcal/mol|
|  sn= 9 | S(rot)=       0.01192534 Eh      7.48 kcal/mol|
|  sn=10 | S(rot)=       0.01182586 Eh      7.42 kcal/mol|
|  sn=11 | S(rot)=       0.01173587 Eh      7.36 kcal/mol|
|  sn=12 | S(rot)=       0.01165371 Eh      7.31 kcal/mol|
 --------------------------------------------------------

                             ****ORCA TERMINATED NORMALLY****
TOTAL RUN TIME: 0 days 2 hours 54 minutes 59 seconds 486 msec
