                         Program Version 5.0.4 -  RELEASE  -
|  1> !BP86 cc-pVTZ OPT FREQ D4
|  2>
|  3> * xyz 0 1
|  4>    C       -2.64949        1.24322       -0.00000
|  5>    C       -3.76421        0.39133       -0.00000
|  6>    C       -3.59009       -0.99632       -0.00000
|  7>    C       -2.30271       -1.54491       -0.00000
|  8>    C       -1.18608       -0.69536       -0.00000
|  9>    C       -1.35922        0.69236       -0.00000
| 10>    H       -4.76626        0.80175       -0.00000
| 11>    H       -4.45679       -1.64538       -0.00000
| 12>    H       -0.18514       -1.10826       -0.00000
| 13>    H       -0.48925        1.33710       -0.00000
| 14>    N       -2.82543        2.64881       -0.00000
| 15>    H       -3.77000        3.06093       -0.00000
| 16>    H       -2.01157        3.28102       -0.00000
| 17>    O       -2.15138       -2.88469       -0.00000
| 18>    H       -1.27904       -3.30400       -0.00000
| 19> **                         ****END OF INPUT****
 Total Charge           Charge          ....    0
 Multiplicity           Mult            ....    1
 Number of Electrons    NEL             ....   58
Dispersion correction           -0.019012270
FINAL SINGLE POINT ENERGY      -362.972356793472
Dispersion correction            ... Starting D4
Dispersion correction           -0.019047661
FINAL SINGLE POINT ENERGY      -362.977322717677
Dispersion correction            ... Starting D4
Dispersion correction           -0.019064129
FINAL SINGLE POINT ENERGY      -362.979386716136
Dispersion correction            ... Starting D4
FINAL SINGLE POINT ENERGY      -362.979560947193
Dispersion correction           -0.019049668
FINAL SINGLE POINT ENERGY      -362.979583394738
Dispersion correction            ... Starting D4
Dispersion correction           -0.019050278
FINAL SINGLE POINT ENERGY      -362.979586355588
Dispersion correction            ... Starting D4
                    ***********************HURRAY********************

CARTESIAN COORDINATES (ANGSTROEM)
---------------------------------
  C     -2.647195    1.258125   -0.000000
  C     -3.755048    0.388152   -0.000000
  C     -3.587576   -0.993569   -0.000000
  C     -2.305450   -1.551203   -0.000000
  C     -1.196680   -0.700688   -0.000000
  C     -1.363392    0.684557   -0.000000
  H     -4.764343    0.803459   -0.000000
  H     -4.452790   -1.655643    0.000000
  H     -0.187470   -1.119397   -0.000000
  H     -0.483307    1.329833   -0.000000
  N     -2.819006    2.631261    0.000000
  H     -3.741503    3.037076    0.000000
  H     -2.026254    3.253528    0.000000
  O     -2.200174   -2.929029    0.000000
  H     -1.256471   -3.158861    0.000000

 Multiplicity           Mult            ....    1
 Number of Electrons    NEL             ....   58
 Basis Dimension        Dim             ....  338

ORBITAL ENERGIES
----------------

  NO   OCC          E(Eh)            E(eV)
   0   2.0000     -18.789101      -511.2774
   1   2.0000     -14.004457      -381.0806
   2   2.0000      -9.944396      -270.6008
   3   2.0000      -9.935541      -270.3598
   4   2.0000      -9.897407      -269.3221
   5   2.0000      -9.894827      -269.2519
   6   2.0000      -9.893793      -269.2238
   7   2.0000      -9.892100      -269.1777
   8   2.0000      -0.959545       -26.1105
   9   2.0000      -0.837285       -22.7837
  10   2.0000      -0.755799       -20.5663
  11   2.0000      -0.673353       -18.3229
  12   2.0000      -0.649983       -17.6869
  13   2.0000      -0.563856       -15.3433
  14   2.0000      -0.542773       -14.7696
  15   2.0000      -0.489464       -13.3190
  16   2.0000      -0.473313       -12.8795
  17   2.0000      -0.460006       -12.5174
  18   2.0000      -0.403375       -10.9764
  19   2.0000      -0.386815       -10.5258
  20   2.0000      -0.370777       -10.0894
  21   2.0000      -0.357039        -9.7155
  22   2.0000      -0.352539        -9.5931
  23   2.0000      -0.325448        -8.8559
  24   2.0000      -0.319134        -8.6841
  25   2.0000      -0.292599        -7.9620
  26   2.0000      -0.244411        -6.6508
  27   2.0000      -0.224081        -6.0976
  28   2.0000      -0.158085        -4.3017
  29   0.0000      -0.036652        -0.9973
  30   0.0000      -0.002258        -0.0614
  31   0.0000       0.016515         0.4494
  32   0.0000       0.021416         0.5827
  33   0.0000       0.045162         1.2289

MULLIKEN ATOMIC CHARGES
-----------------------
   0 C :    0.159754
   1 C :   -0.141845
   2 C :   -0.139028
   3 C :    0.182335
   4 C :   -0.192562
   5 C :   -0.155850
   6 H :    0.086877
   7 H :    0.108086
   8 H :    0.081377
   9 H :    0.086181
  10 N :   -0.288002
  11 H :    0.145265
  12 H :    0.144752
  13 O :   -0.283800
  14 H :    0.206461
Sum of atomic charges:    0.0000000

LOEWDIN ATOMIC CHARGES
----------------------
   0 C :   -0.173593
   1 C :    0.010777
   2 C :    0.014907
   3 C :   -0.234687
   4 C :   -0.007042
   5 C :    0.007370
   6 H :   -0.032566
   7 H :   -0.024805
   8 H :   -0.032735
   9 H :   -0.033832
  10 N :    0.435954
  11 H :   -0.089531
  12 H :   -0.089889
  13 O :    0.419670
  14 H :   -0.169997

  Mayer bond orders larger than 0.100000
B(  0-C ,  1-C ) :   1.2630 B(  0-C ,  5-C ) :   1.2823 B(  0-C , 10-N ) :   1.1390
B(  1-C ,  2-C ) :   1.4205 B(  1-C ,  6-H ) :   0.9784 B(  2-C ,  3-C ) :   1.3128
B(  2-C ,  7-H ) :   0.9658 B(  3-C ,  4-C ) :   1.3095 B(  3-C , 13-O ) :   1.1478
B(  4-C ,  5-C ) :   1.3774 B(  4-C ,  8-H ) :   0.9784 B(  5-C ,  9-H ) :   0.9726
B( 10-N , 11-H ) :   0.9811 B( 10-N , 12-H ) :   0.9814 B( 13-O , 14-H ) :   1.0060

Dispersion correction           -0.019051104
FINAL SINGLE POINT ENERGY      -362.979586973592

DIPOLE MOMENT
-------------
                                X             Y             Z
Electronic contribution:     -0.00780      -2.60676      -0.00000
Nuclear contribution   :      0.39370       3.42284       0.00000
                        -----------------------------------------
Total Dipole Moment    :      0.38591       0.81608       0.00000
                        -----------------------------------------
Magnitude (a.u.)       :      0.90273
Magnitude (Debye)      :      2.29455

Dispersion correction in the Hessian             ... Starting D4

VIBRATIONAL FREQUENCIES
-----------------------

Scaling factor for frequencies =  1.000000000  (already applied!)

   0:         0.00 cm**-1
   1:         0.00 cm**-1
   2:         0.00 cm**-1
   3:         0.00 cm**-1
   4:         0.00 cm**-1
   5:         0.00 cm**-1
   6:      -490.85 cm**-1 ***imaginary mode***
   7:       143.76 cm**-1
   8:       299.26 cm**-1
   9:       314.35 cm**-1
  10:       315.67 cm**-1
  11:       347.27 cm**-1
  12:       410.12 cm**-1
  13:       418.78 cm**-1
  14:       459.85 cm**-1
  15:       495.00 cm**-1
  16:       640.27 cm**-1
  17:       692.71 cm**-1
  18:       754.44 cm**-1
  19:       761.59 cm**-1
  20:       794.03 cm**-1
  21:       840.95 cm**-1
  22:       868.87 cm**-1
  23:       902.67 cm**-1
  24:       993.85 cm**-1
  25:       997.57 cm**-1
  26:      1104.29 cm**-1
  27:      1155.46 cm**-1
  28:      1159.01 cm**-1
  29:      1242.58 cm**-1
  30:      1294.42 cm**-1
  31:      1312.45 cm**-1
  32:      1355.03 cm**-1
  33:      1445.14 cm**-1
  34:      1508.01 cm**-1
  35:      1585.72 cm**-1
  36:      1588.54 cm**-1
  37:      1628.99 cm**-1
  38:      3071.95 cm**-1
  39:      3085.64 cm**-1
  40:      3092.85 cm**-1
  41:      3118.21 cm**-1
  42:      3555.22 cm**-1
  43:      3676.58 cm**-1
  44:      3698.05 cm**-1

IR SPECTRUM
-----------

 Mode   freq       eps      Int      T**2         TX        TY        TZ
       cm**-1   L/(mol*cm) km/mol    a.u.
----------------------------------------------------------------------------
  7:    143.76   0.000625    3.16  0.001357  ( 0.000000 -0.000000 -0.036841)
  8:    299.26   0.017796   89.93  0.018557  ( 0.000000 -0.000000  0.136225)
  9:    314.35   0.000010    0.05  0.000010  (-0.000000 -0.000000  0.003201)
 10:    315.67   0.001115    5.64  0.001103  ( 0.018887  0.027313  0.000000)
 11:    347.27   0.000401    2.03  0.000360  (-0.000000  0.000000 -0.018981)
 12:    410.12   0.000287    1.45  0.000218  (-0.000000 -0.000000 -0.014771)
 13:    418.78   0.001403    7.09  0.001045  ( 0.014029 -0.029128 -0.000000)
 14:    459.85   0.000131    0.66  0.000089  ( 0.001738  0.009285 -0.000000)
 15:    495.00   0.006035   30.50  0.003805  ( 0.000000 -0.000000 -0.061681)
 16:    640.27   0.000087    0.44  0.000042  (-0.002229  0.006116  0.000000)
 17:    692.71   0.000121    0.61  0.000054  ( 0.000000 -0.000000 -0.007381)
 18:    754.44   0.008106   40.96  0.003353  (-0.005779  0.057614 -0.000000)
 19:    761.59   0.001318    6.66  0.000540  (-0.000000  0.000000  0.023239)
 20:    794.03   0.008371   42.31  0.003290  (-0.000000  0.000000 -0.057360)
 21:    840.95   0.000278    1.41  0.000103  ( 0.003324 -0.009604  0.000000)
 22:    868.87   0.000043    0.22  0.000016  (-0.000000 -0.000000 -0.003942)
 23:    902.67   0.000073    0.37  0.000025  ( 0.000000  0.000000  0.005013)
 24:    993.85   0.000066    0.33  0.000021  ( 0.000574 -0.004499 -0.000000)
 25:    997.57   0.000362    1.83  0.000113  ( 0.002130 -0.010426 -0.000000)
 26:   1104.29   0.004313   21.80  0.001219  ( 0.030961 -0.016135  0.000000)
 27:   1155.46   0.013241   66.91  0.003576  ( 0.001053 -0.059790  0.000000)
 28:   1159.01   0.018771   94.86  0.005054  ( 0.004028  0.070978 -0.000000)
 29:   1242.58   0.019210   97.08  0.004825  (-0.014464  0.067936 -0.000000)
 30:   1294.42   0.004553   23.01  0.001098  ( 0.007555 -0.032258 -0.000000)
 31:   1312.45   0.004072   20.58  0.000968  (-0.004347 -0.030811 -0.000000)
 32:   1355.03   0.006823   34.48  0.001571  ( 0.031360 -0.024248  0.000000)
 33:   1445.14   0.004197   21.21  0.000906  (-0.001905 -0.030045  0.000000)
 34:   1508.01   0.044790  226.35  0.009269  ( 0.011523 -0.095582 -0.000000)
 35:   1585.72   0.008651   43.72  0.001702  ( 0.005673 -0.040869 -0.000000)
 36:   1588.54   0.012249   61.90  0.002406  ( 0.006059 -0.048678 -0.000000)
 37:   1628.99   0.006029   30.47  0.001155  ( 0.004062 -0.033741 -0.000000)
 38:   3071.95   0.004812   24.32  0.000489  ( 0.008211 -0.020527 -0.000000)
 39:   3085.64   0.003664   18.51  0.000371  (-0.014780  0.012332 -0.000000)
 40:   3092.85   0.003429   17.33  0.000346  (-0.016208 -0.009126 -0.000000)
 41:   3118.21   0.001350    6.82  0.000135  (-0.010027 -0.005877 -0.000000)
 42:   3555.22   0.009719   49.12  0.000853  ( 0.004073 -0.028923 -0.000000)
 43:   3676.58   0.004750   24.00  0.000403  (-0.019938 -0.002372 -0.000000)
 44:   3698.05   0.007902   39.93  0.000667  ( 0.017563 -0.018930  0.000000)

--------------------------
THERMOCHEMISTRY AT 298.15K
--------------------------

Temperature         ... 298.15 K
Pressure            ... 1.00 atm
Total Mass          ... 109.13 AMU

Throughout the following assumptions are being made:
  (1) The electronic state is orbitally nondegenerate
  (2) There are no thermally accessible electronically excited states
  (3) Hindered rotations indicated by low frequency modes are not
      treated as such but are treated as vibrations and this may
      cause some error
  (4) All equations used are the standard statistical mechanics
      equations for an ideal gas
  (5) All vibrations are strictly harmonic

freq.     143.76  E(vib)   ...       0.41
freq.     299.26  E(vib)   ...       0.26
freq.     314.35  E(vib)   ...       0.25
freq.     315.67  E(vib)   ...       0.25
freq.     347.27  E(vib)   ...       0.23
freq.     410.12  E(vib)   ...       0.19
freq.     418.78  E(vib)   ...       0.18
freq.     459.85  E(vib)   ...       0.16
freq.     495.00  E(vib)   ...       0.14
freq.     640.27  E(vib)   ...       0.09
freq.     692.71  E(vib)   ...       0.07
freq.     754.44  E(vib)   ...       0.06
freq.     761.59  E(vib)   ...       0.06
freq.     794.03  E(vib)   ...       0.05
freq.     840.95  E(vib)   ...       0.04
freq.     868.87  E(vib)   ...       0.04
freq.     902.67  E(vib)   ...       0.03
freq.     993.85  E(vib)   ...       0.02
freq.     997.57  E(vib)   ...       0.02
freq.    1104.29  E(vib)   ...       0.02
freq.    1155.46  E(vib)   ...       0.01
freq.    1159.01  E(vib)   ...       0.01
freq.    1242.58  E(vib)   ...       0.01
freq.    1294.42  E(vib)   ...       0.01
freq.    1312.45  E(vib)   ...       0.01
freq.    1355.03  E(vib)   ...       0.01
freq.    1445.14  E(vib)   ...       0.00
freq.    1508.01  E(vib)   ...       0.00
freq.    1585.72  E(vib)   ...       0.00
freq.    1588.54  E(vib)   ...       0.00
freq.    1628.99  E(vib)   ...       0.00
freq.    3071.95  E(vib)   ...       0.00
freq.    3085.64  E(vib)   ...       0.00
freq.    3092.85  E(vib)   ...       0.00
freq.    3118.21  E(vib)   ...       0.00
freq.    3555.22  E(vib)   ...       0.00
freq.    3676.58  E(vib)   ...       0.00
freq.    3698.05  E(vib)   ...       0.00

------------
INNER ENERGY
------------

The inner energy is: U= E(el) + E(ZPE) + E(vib) + E(rot) + E(trans)
    E(el)   - is the total energy from the electronic structure calculation
              = E(kin-el) + E(nuc-el) + E(el-el) + E(nuc-nuc)
    E(ZPE)  - the the zero temperature vibrational energy from the frequency calculation
    E(vib)  - the the finite temperature correction to E(ZPE) due to population
              of excited vibrational states
    E(rot)  - is the rotational thermal energy
    E(trans)- is the translational thermal energy

Summary of contributions to the inner energy U:
Electronic energy                ...   -362.97958697 Eh
Zero point energy                ...      0.11648079 Eh      73.09 kcal/mol
Thermal vibrational correction   ...      0.00422212 Eh       2.65 kcal/mol
Thermal rotational correction    ...      0.00141627 Eh       0.89 kcal/mol
Thermal translational correction ...      0.00141627 Eh       0.89 kcal/mol
-----------------------------------------------------------------------
Total thermal energy                   -362.85605152 Eh

Summary of corrections to the electronic energy:
(perhaps to be used in another calculation)
Total thermal correction                  0.00705466 Eh       4.43 kcal/mol
Non-thermal (ZPE) correction              0.11648079 Eh      73.09 kcal/mol
-----------------------------------------------------------------------
Total correction                          0.12353545 Eh      77.52 kcal/mol

--------
ENTHALPY
--------

The enthalpy is H = U + kB*T
                kB is Boltzmann's constant
Total free energy                 ...   -362.85605152 Eh
Thermal Enthalpy correction       ...      0.00094421 Eh       0.59 kcal/mol
-----------------------------------------------------------------------
Total Enthalpy                    ...   -362.85510731 Eh

Note: Rotational entropy computed according to Herzberg
Infrared and Raman Spectra, Chapter V,1, Van Nostrand Reinhold, 1945
Point Group:  Cs, Symmetry Number:   1
Rotational constants in cm-1:     0.185850     0.048949     0.038745

Vibrational entropy computed according to the QRRHO of S. Grimme
Chem.Eur.J. 2012 18 9955

-------
ENTROPY
-------

The entropy contributions are T*S = T*(S(el)+S(vib)+S(rot)+S(trans))
     S(el)   - electronic entropy
     S(vib)  - vibrational entropy
     S(rot)  - rotational entropy
     S(trans)- translational entropy
The entropies will be listed as multiplied by the temperature to get
units of energy

Electronic entropy                ...      0.00000000 Eh      0.00 kcal/mol
Vibrational entropy               ...      0.00648148 Eh      4.07 kcal/mol
Rotational entropy                ...      0.01326419 Eh      8.32 kcal/mol
Translational entropy             ...      0.01899496 Eh     11.92 kcal/mol
-----------------------------------------------------------------------
Final entropy term                ...      0.03874063 Eh     24.31 kcal/mol

In case the symmetry of your molecule has not been determined correctly
or in case you have a reason to use a different symmetry number we print
out the resulting rotational entropy values for sn=1,12 :
 --------------------------------------------------------
|  sn= 1 | S(rot)=       0.01326419 Eh      8.32 kcal/mol|
|  sn= 2 | S(rot)=       0.01260974 Eh      7.91 kcal/mol|
|  sn= 3 | S(rot)=       0.01222690 Eh      7.67 kcal/mol|
|  sn= 4 | S(rot)=       0.01195528 Eh      7.50 kcal/mol|
|  sn= 5 | S(rot)=       0.01174459 Eh      7.37 kcal/mol|
|  sn= 6 | S(rot)=       0.01157245 Eh      7.26 kcal/mol|
|  sn= 7 | S(rot)=       0.01142690 Eh      7.17 kcal/mol|
|  sn= 8 | S(rot)=       0.01130082 Eh      7.09 kcal/mol|
|  sn= 9 | S(rot)=       0.01118961 Eh      7.02 kcal/mol|
|  sn=10 | S(rot)=       0.01109014 Eh      6.96 kcal/mol|
|  sn=11 | S(rot)=       0.01100015 Eh      6.90 kcal/mol|
|  sn=12 | S(rot)=       0.01091799 Eh      6.85 kcal/mol|
 --------------------------------------------------------

-------------------
GIBBS FREE ENERGY
-------------------

The Gibbs free energy is G = H - T*S

Total enthalpy                    ...   -362.85510731 Eh
Total entropy correction          ...     -0.03874063 Eh    -24.31 kcal/mol
-----------------------------------------------------------------------
Final Gibbs free energy         ...   -362.89384794 Eh

For completeness - the Gibbs free energy minus the electronic energy
G-E(el)                           ...      0.08573903 Eh     53.80 kcal/mol

                             ****ORCA TERMINATED NORMALLY****
TOTAL RUN TIME: 0 days 0 hours 42 minutes 11 seconds 218 msec
