                         Program Version 5.0.4 -  RELEASE  -
|  1> !DLPNO-CCSD(T) cc-pVTZ cc-pVTZ/C TIGHTSCF RIJCOSX
|  2>
|  3> * xyz 0 1
|  4>   C   -1.05354596271083      1.42135243576665     -0.73549220185663
|  5>   C   -1.76717691585433      0.81968690597605      0.22444324622836
|  6>   C   -0.91604797271676     -0.21504620254596      0.92339098529051
|  7>   C   -3.18658916550982      1.06760146729181      0.62043996179919
|  8>   H   -3.65177058285626      1.84890976029203      0.00161745831760
|  9>   H   -3.25259686050292      1.37975261146372      1.67787971117939
| 10>   H   -3.79133874736600      0.14808169577577      0.52701048897989
| 11>   C   0.35705795446457      0.89749440001034     -0.79501799653405
| 12>   C   1.41588701773226      2.02006837281249     -0.63884945754235
| 13>   C   2.80881703463114      1.41251132710473     -0.63583732910559
| 14>   H   1.20967085252781      2.57392305919014      0.29049098629325
| 15>   H   1.34740263144453      2.70902449090648     -1.49554455642121
| 16>   C   3.37622781232091      1.19049215945855      0.75754145591531
| 17>   N   0.41123761481178     -0.07210345422347      0.31381604773552
| 18>   H   0.56307393880421      0.40954505459904     -1.76931562713006
| 19>   H   -1.34153580290440     -1.23063666814028      0.78694765203342
| 20>   H   -0.89469173408622     -0.03961126720342      2.01833030977159
| 21>   H   0.80199521648994     -0.96262165511348      0.02364954504097
| 22>   O   3.36130687691708      1.06897825383177     -1.65256833709520
| 23>   Cl  4.92950915132907      0.31373216343513      0.77168111918747
| 24>   H   2.62051255229742      0.61607693324621      1.31840686987001
| 25>   H   3.50773757250952      2.16097047317234      1.26235402519175
| 26>   H   -1.41589248177270      2.21265768289335     -1.39571435714913
| 27> **                         ****END OF INPUT****

CARTESIAN COORDINATES (ANGSTROEM)
---------------------------------
  C     -1.053546    1.421352   -0.735492
  C     -1.767177    0.819687    0.224443
  C     -0.916048   -0.215046    0.923391
  C     -3.186589    1.067601    0.620440
  H     -3.651771    1.848910    0.001617
  H     -3.252597    1.379753    1.677880
  H     -3.791339    0.148082    0.527010
  C      0.357058    0.897494   -0.795018
  C      1.415887    2.020068   -0.638849
  C      2.808817    1.412511   -0.635837
  H      1.209671    2.573923    0.290491
  H      1.347403    2.709024   -1.495545
  C      3.376228    1.190492    0.757541
  N      0.411238   -0.072103    0.313816
  H      0.563074    0.409545   -1.769316
  H     -1.341536   -1.230637    0.786948
  H     -0.894692   -0.039611    2.018330
  H      0.801995   -0.962622    0.023650
  O      3.361307    1.068978   -1.652568
  Cl     4.929509    0.313732    0.771681
  H      2.620513    0.616077    1.318407
  H      3.507738    2.160970    1.262354
  H     -1.415892    2.212658   -1.395714

 Total Charge           Charge          ....    0
 Multiplicity           Mult            ....    1
 Number of Electrons    NEL             ....   92
 Basis Dimension        Dim             ....  502

ORBITAL ENERGIES
----------------

  NO   OCC          E(Eh)            E(eV)
   0   2.0000    -104.819563     -2852.2853
   1   2.0000     -20.550648      -559.2116
   2   2.0000     -15.555604      -423.2895
   3   2.0000     -11.337738      -308.5155
   4   2.0000     -11.298214      -307.4400
   5   2.0000     -11.280192      -306.9496
   6   2.0000     -11.268870      -306.6416
   7   2.0000     -11.249224      -306.1070
   8   2.0000     -11.243202      -305.9431
   9   2.0000     -11.240553      -305.8710
  10   2.0000     -11.232803      -305.6601
  11   2.0000     -10.544352      -286.9264
  12   2.0000      -8.011146      -217.9944
  13   2.0000      -8.009395      -217.9467
  14   2.0000      -8.009361      -217.9458
  15   2.0000      -1.394851       -37.9558
  16   2.0000      -1.241671       -33.7876
  17   2.0000      -1.129538       -30.7363
  18   2.0000      -1.077604       -29.3231
  19   2.0000      -1.057935       -28.7879
  20   2.0000      -0.982000       -26.7216
  21   2.0000      -0.941652       -25.6237
  22   2.0000      -0.914704       -24.8903
  23   2.0000      -0.808194       -21.9921
  24   2.0000      -0.745887       -20.2966
  25   2.0000      -0.732039       -19.9198
  26   2.0000      -0.702660       -19.1204
  27   2.0000      -0.662246       -18.0206
  28   2.0000      -0.652114       -17.7449
  29   2.0000      -0.630877       -17.1670
  30   2.0000      -0.622518       -16.9396
  31   2.0000      -0.597155       -16.2494
  32   2.0000      -0.591683       -16.1005
  33   2.0000      -0.573709       -15.6114
  34   2.0000      -0.552554       -15.0358
  35   2.0000      -0.549699       -14.9581
  36   2.0000      -0.542533       -14.7631
  37   2.0000      -0.519340       -14.1320
  38   2.0000      -0.514041       -13.9878
  39   2.0000      -0.503204       -13.6929
  40   2.0000      -0.486891       -13.2490
  41   2.0000      -0.442001       -12.0275
  42   2.0000      -0.431745       -11.7484
  43   2.0000      -0.412004       -11.2112
  44   2.0000      -0.393342       -10.7034
  45   2.0000      -0.345125        -9.3913
  46   0.0000       0.122809         3.3418
  47   0.0000       0.136183         3.7057
  48   0.0000       0.139324         3.7912
  49   0.0000       0.146474         3.9858
  50   0.0000       0.156988         4.2719

MULLIKEN ATOMIC CHARGES
-----------------------
   0 C :   -0.285130
   1 C :    0.023541
   2 C :   -0.056539
   3 C :   -0.267494
   4 H :    0.106397
   5 H :    0.098277
   6 H :    0.098467
   7 C :    0.061553
   8 C :   -0.194011
   9 C :    0.277604
  10 H :    0.105645
  11 H :    0.126091
  12 C :   -0.093000
  13 N :   -0.338157
  14 H :    0.125225
  15 H :    0.087196
  16 H :    0.079192
  17 H :    0.146372
  18 O :   -0.348676
  19 Cl:   -0.186531
  20 H :    0.137550
  21 H :    0.128550
  22 H :    0.167878
Sum of atomic charges:    0.0000000

LOEWDIN ATOMIC CHARGES
----------------------
   0 C :    0.030512
   1 C :   -0.050650
   2 C :    0.000126
   3 C :    0.105589
   4 H :   -0.014885
   5 H :   -0.016205
   6 H :   -0.016460
   7 C :   -0.079019
   8 C :    0.056204
   9 C :   -0.267410
  10 H :   -0.018123
  11 H :   -0.010218
  12 C :   -0.137034
  13 N :    0.320788
  14 H :   -0.019226
  15 H :   -0.027696
  16 H :   -0.027894
  17 H :   -0.111161
  18 O :    0.159307
  19 Cl:    0.210102
  20 H :   -0.029295
  21 H :   -0.025572
  22 H :   -0.031781

  Mayer bond orders larger than 0.100000
B(  0-C ,  1-C ) :   1.8504 B(  0-C ,  7-C ) :   0.9980 B(  0-C , 22-H ) :   0.9453
B(  1-C ,  2-C ) :   0.9791 B(  1-C ,  3-C ) :   0.9556 B(  2-C , 13-N ) :   0.9991
B(  2-C , 15-H ) :   0.9789 B(  2-C , 16-H ) :   0.9747 B(  3-C ,  4-H ) :   0.9889
B(  3-C ,  5-H ) :   0.9730 B(  3-C ,  6-H ) :   0.9714 B(  7-C ,  8-C ) :   0.9326
B(  7-C , 13-N ) :   0.9612 B(  7-C , 14-H ) :   0.9806 B(  8-C ,  9-C ) :   0.9325
B(  8-C , 10-H ) :   0.9766 B(  8-C , 11-H ) :   0.9763 B(  9-C , 12-C ) :   0.9260
B(  9-C , 18-O ) :   2.1168 B( 12-C , 19-Cl) :   0.9985 B( 12-C , 20-H ) :   0.9473
B( 12-C , 21-H ) :   0.9625 B( 13-N , 17-H ) :   0.9803

E(0)                                       ...   -898.887794198
E(0)                                       ...   -898.887794198
E(CORR)(strong-pairs)                      ...     -2.008542719
E(CORR)(weak-pairs)                        ...     -0.009086168
E(CORR)(corrected)                         ...     -2.017628887
E(TOT)                                     ...   -900.905423085
E(CCSD(T))                                 ...   -900.991861224
FINAL SINGLE POINT ENERGY      -900.991861224420

DIPOLE MOMENT
-------------
                                X             Y             Z
Electronic contribution:     22.44609      -2.16698      -0.98729
Nuclear contribution   :    -24.46675       2.52936       1.68763
                        -----------------------------------------
Total Dipole Moment    :     -2.02066       0.36238       0.70034
                        -----------------------------------------
Magnitude (a.u.)       :      2.16907
Magnitude (Debye)      :      5.51334

Rotational constants in cm-1:     0.078975     0.013377     0.012208
Rotational constants in MHz :  2367.608052   401.025928   365.983271

                             ****ORCA TERMINATED NORMALLY****
TOTAL RUN TIME: 0 days 4 hours 18 minutes 19 seconds 177 msec
