                         Program Version 5.0.4 -  RELEASE  -
|  1> !cam-B3LYP OPT FREQ DEF2-SVP D4
|  2>
|  3> * xyz 1 1
|  4>   C   -2.59096763099183      1.35707632868311     -1.29637108519819
|  5>   C   -3.50747628417126      0.37240827878264     -1.80457451714020
|  6>   C   -3.45236690447404     -0.93835909424729     -1.38160475434772
|  7>   C   -2.48817531049545     -1.33980578122810     -0.43443843007945
|  8>   C   -1.57552392964272     -0.40393778752883      0.08434612922563
|  9>   C   -1.61563141305945      0.91521024662854     -0.32827199413195
| 10>   H   -4.25195182069650      0.69125864725650     -2.53800219692391
| 11>   H   -4.15949510762728     -1.66738594169357     -1.78278233677945
| 12>   H   -2.44437445211484     -2.37789999359236     -0.09889195510160
| 13>   H   -0.82178865975236     -0.69300555649948      0.81747370321744
| 14>   H   8.82976292378174     -2.55970494046663     16.90895843887601
| 15>   N   -2.66677522711290      2.61583751867298     -1.72250405352587
| 16>   H   -3.36682596193991      2.89167503631130     -2.40514066495180
| 17>   H   -1.99583134244529      3.28982669128129     -1.33755351490510
| 18>   N   -0.63051392660352      1.84453632440211      0.25570501831424
| 19>   O   -0.66519690147805      3.01805597300700     -0.11265600787859
| 20>   O   0.15310194882382      1.39786405023072      1.06215822133048
| 21> *
| 22>
| 23>                          ****END OF INPUT****
 Total Charge           Charge          ....    1
 Multiplicity           Mult            ....    1
 Number of Electrons    NEL             ....   72
Dispersion correction           -0.014063127
FINAL SINGLE POINT ENERGY      -491.538705365949
Dispersion correction            ... Starting D4
Dispersion correction           -0.014118854
FINAL SINGLE POINT ENERGY      -491.541647171446
Dispersion correction            ... Starting D4
Dispersion correction           -0.014138638
FINAL SINGLE POINT ENERGY      -491.541919830445
Dispersion correction            ... Starting D4
FINAL SINGLE POINT ENERGY      -491.541962282255
FINAL SINGLE POINT ENERGY      -491.541989124885
FINAL SINGLE POINT ENERGY      -491.542005123212
FINAL SINGLE POINT ENERGY      -491.542018862337
FINAL SINGLE POINT ENERGY      -491.542032515972
FINAL SINGLE POINT ENERGY      -491.542045660570
FINAL SINGLE POINT ENERGY      -491.542058373016
FINAL SINGLE POINT ENERGY      -491.542071005403
Dispersion correction           -0.014131723
FINAL SINGLE POINT ENERGY      -491.542083773928
Dispersion correction            ... Starting D4
Dispersion correction           -0.014131629
FINAL SINGLE POINT ENERGY      -491.542096594860
Dispersion correction            ... Starting D4
                    ***********************HURRAY********************

CARTESIAN COORDINATES (ANGSTROEM)
---------------------------------
  C     -2.544164    1.359506   -1.226090
  C     -3.445308    0.388531   -1.730447
  C     -3.399780   -0.926587   -1.325925
  C     -2.450997   -1.364075   -0.388776
  C     -1.558964   -0.448462    0.122978
  C     -1.595957    0.892777   -0.280665
  H     -4.190165    0.712142   -2.460736
  H     -4.117084   -1.635321   -1.745697
  H     -2.418081   -2.406609   -0.071558
  H     -0.800161   -0.728790    0.851111
  H      8.266108   -2.344651   15.991795
  N     -2.627482    2.636944   -1.652115
  H     -3.326651    2.890842   -2.333191
  H     -1.970715    3.313879   -1.284547
  N     -0.617432    1.783161    0.315358
  O     -0.618251    2.962442   -0.017863
  O      0.165053    1.327919    1.122220

 Multiplicity           Mult            ....    1
 Number of Electrons    NEL             ....   72
 Basis Dimension        Dim             ....  175

ORBITAL ENERGIES
----------------

  NO   OCC          E(Eh)            E(eV)
   0   2.0000     -19.258670      -524.0551
   1   2.0000     -19.256861      -524.0058
   2   2.0000     -14.664695      -399.0466
   3   2.0000     -14.452571      -393.2744
   4   2.0000     -10.367124      -282.1038
   5   2.0000     -10.338752      -281.3317
   6   2.0000     -10.313235      -280.6374
   7   2.0000     -10.311013      -280.5769
   8   2.0000     -10.303196      -280.3642
   9   2.0000     -10.295889      -280.1654
  10   2.0000      -1.335126       -36.3306
  11   2.0000      -1.153535       -31.3893
  12   2.0000      -1.049703       -28.5639
  13   2.0000      -0.971100       -26.4250
  14   2.0000      -0.909767       -24.7560
  15   2.0000      -0.851953       -23.1828
  16   2.0000      -0.793541       -21.5934
  17   2.0000      -0.730799       -19.8861
  18   2.0000      -0.706038       -19.2123
  19   2.0000      -0.658566       -17.9205
  20   2.0000      -0.643633       -17.5141
  21   2.0000      -0.627499       -17.0751
  22   2.0000      -0.623802       -16.9745
  23   2.0000      -0.607662       -16.5353
  24   2.0000      -0.574116       -15.6225
  25   2.0000      -0.543189       -14.7809
  26   2.0000      -0.540645       -14.7117
  27   2.0000      -0.507858       -13.8195
  28   2.0000      -0.484091       -13.1728
  29   2.0000      -0.461555       -12.5595
  30   2.0000      -0.430799       -11.7226
  31   2.0000      -0.402743       -10.9592
  32   2.0000      -0.397854       -10.8262
  33   2.0000      -0.385497       -10.4899
  34   2.0000      -0.362327        -9.8594
  35   2.0000      -0.303961        -8.2712
  36   0.0000      -0.498132       -13.5549
  37   0.0000      -0.061967        -1.6862
  38   0.0000       0.011662         0.3173
  39   0.0000       0.031844         0.8665
  40   0.0000       0.068354         1.8600

MULLIKEN ATOMIC CHARGES
-----------------------
   0 C :   -0.002781
   1 C :   -0.072662
   2 C :    0.057113
   3 C :   -0.002259
   4 C :   -0.018888
   5 C :    0.091165
   6 H :   -0.029081
   7 H :    0.003242
   8 H :   -0.005978
   9 H :    0.006768
  10 H :    1.000000
  11 N :   -0.004448
  12 H :    0.116848
  13 H :    0.138648
  14 N :    0.256084
  15 O :   -0.287373
  16 O :   -0.246398
Sum of atomic charges:    1.0000000

LOEWDIN ATOMIC CHARGES
----------------------
   0 C :    0.055465
   1 C :   -0.068425
   2 C :    0.012199
   3 C :   -0.065323
   4 C :    0.007909
   5 C :   -0.085213
   6 H :    0.029419
   7 H :    0.036747
   8 H :    0.031543
   9 H :    0.041055
  10 H :    1.000000
  11 N :    0.012733
  12 H :    0.079753
  13 H :    0.065845
  14 N :    0.291061
  15 O :   -0.232973
  16 O :   -0.211794

  Mayer bond orders larger than 0.100000
B(  0-C ,  1-C ) :   1.2606 B(  0-C ,  5-C ) :   1.2842 B(  0-C , 11-N ) :   1.3970
B(  1-C ,  2-C ) :   1.4607 B(  1-C ,  6-H ) :   0.9908 B(  2-C ,  3-C ) :   1.2842
B(  2-C ,  7-H ) :   0.9875 B(  3-C ,  4-C ) :   1.4078 B(  3-C ,  8-H ) :   0.9918
B(  4-C ,  5-C ) :   1.3491 B(  4-C ,  9-H ) :   0.9830 B(  5-C , 14-N ) :   0.9174
B( 11-N , 12-H ) :   0.9275 B( 11-N , 13-H ) :   0.9012 B( 14-N , 15-O ) :   1.4707
B( 14-N , 16-O ) :   1.5735 B( 15-O , 16-O ) :   0.2390

Dispersion correction           -0.014131836
FINAL SINGLE POINT ENERGY      -491.542097261583

DIPOLE MOMENT
-------------
                                X             Y             Z
Electronic contribution:     14.09097      -0.27535      18.98857
Nuclear contribution   :      3.41402      -6.23320      10.77938
                        -----------------------------------------
Total Dipole Moment    :     17.50500      -6.50855      29.76794
                        -----------------------------------------
Magnitude (a.u.)       :     35.14138
Magnitude (Debye)      :     89.32229

Dispersion correction in the Hessian             ... Starting D4

VIBRATIONAL FREQUENCIES
-----------------------

Scaling factor for frequencies =  1.000000000  (already applied!)

   0:         0.00 cm**-1
   1:         0.00 cm**-1
   2:         0.00 cm**-1
   3:         0.00 cm**-1
   4:         0.00 cm**-1
   5:         0.00 cm**-1
   6:       -12.41 cm**-1 ***imaginary mode***
   7:         7.89 cm**-1
   8:         9.06 cm**-1
   9:        68.24 cm**-1
  10:       137.79 cm**-1
  11:       248.00 cm**-1
  12:       306.21 cm**-1
  13:       308.07 cm**-1
  14:       395.52 cm**-1
  15:       414.46 cm**-1
  16:       449.61 cm**-1
  17:       557.35 cm**-1
  18:       558.20 cm**-1
  19:       576.73 cm**-1
  20:       618.57 cm**-1
  21:       696.78 cm**-1
  22:       733.89 cm**-1
  23:       781.14 cm**-1
  24:       803.92 cm**-1
  25:       858.32 cm**-1
  26:       889.48 cm**-1
  27:       908.71 cm**-1
  28:      1015.67 cm**-1
  29:      1034.01 cm**-1
  30:      1039.93 cm**-1
  31:      1083.62 cm**-1
  32:      1127.75 cm**-1
  33:      1183.15 cm**-1
  34:      1185.39 cm**-1
  35:      1306.82 cm**-1
  36:      1341.62 cm**-1
  37:      1412.02 cm**-1
  38:      1457.52 cm**-1
  39:      1509.05 cm**-1
  40:      1535.51 cm**-1
  41:      1604.59 cm**-1
  42:      1658.90 cm**-1
  43:      1699.23 cm**-1
  44:      1744.24 cm**-1
  45:      3199.23 cm**-1
  46:      3215.23 cm**-1
  47:      3232.09 cm**-1
  48:      3261.31 cm**-1
  49:      3589.38 cm**-1
  50:      3745.59 cm**-1

IR SPECTRUM
-----------

 Mode   freq       eps      Int      T**2         TX        TY        TZ
       cm**-1   L/(mol*cm) km/mol    a.u.
----------------------------------------------------------------------------
  7:      7.89   0.098195  496.24  3.885121  (-0.372319  1.665510  0.986192)
  8:      9.06   0.110084  556.32  3.791165  (-1.721395 -0.899972  0.134224)
  9:     68.24   0.000065    0.33  0.000300  ( 0.014730 -0.002976 -0.008583)
 10:    137.79   0.000121    0.61  0.000274  (-0.010521  0.004002  0.012124)
 11:    248.00   0.001696    8.57  0.002134  ( 0.029750 -0.010324 -0.033801)
 12:    306.21   0.002879   14.55  0.002934  ( 0.027431  0.008328 -0.045963)
 13:    308.07   0.030646  154.87  0.031043  (-0.115082  0.045397  0.125451)
 14:    395.52   0.000713    3.60  0.000563  ( 0.018051 -0.002287  0.015218)
 15:    414.46   0.000424    2.14  0.000319  (-0.008761  0.011593 -0.010388)
 16:    449.61   0.000190    0.96  0.000132  ( 0.007344 -0.002783 -0.008387)
 17:    557.35   0.002874   14.52  0.001609  (-0.023694  0.010094  0.030755)
 18:    558.20   0.000567    2.87  0.000317  ( 0.015281  0.008862  0.002228)
 19:    576.73   0.000282    1.42  0.000153  ( 0.005529 -0.008492  0.007059)
 20:    618.57   0.003219   16.27  0.001624  ( 0.025289 -0.009026 -0.030046)
 21:    696.78   0.001657    8.37  0.000742  ( 0.017453  0.018201  0.010299)
 22:    733.89   0.002831   14.31  0.001204  (-0.022265  0.007146  0.025632)
 23:    781.14   0.009125   46.11  0.003646  (-0.038540  0.012556  0.044750)
 24:    803.92   0.000651    3.29  0.000253  (-0.010095  0.003411  0.011801)
 25:    858.32   0.000625    3.16  0.000227  ( 0.011209 -0.000624  0.010054)
 26:    889.48   0.000613    3.10  0.000215  ( 0.009484 -0.002923 -0.010795)
 27:    908.71   0.006108   30.87  0.002098  (-0.029611 -0.030512 -0.017025)
 28:   1015.67   0.000137    0.69  0.000042  (-0.004064  0.001550  0.004800)
 29:   1034.01   0.001745    8.82  0.000527  ( 0.008236 -0.017713  0.012047)
 30:   1039.93   0.000030    0.15  0.000009  ( 0.002007 -0.000639 -0.002121)
 31:   1083.62   0.001161    5.87  0.000334  ( 0.002712  0.017875 -0.002747)
 32:   1127.75   0.009874   49.90  0.002732  ( 0.038197  0.024153  0.026268)
 33:   1183.15   0.003659   18.49  0.000965  ( 0.020169 -0.011603  0.020585)
 34:   1185.39   0.006422   32.45  0.001691  (-0.027926  0.012388 -0.027519)
 35:   1306.82   0.002343   11.84  0.000559  (-0.017869 -0.008439 -0.012998)
 36:   1341.62   0.022882  115.64  0.005322  (-0.056181 -0.012318 -0.044881)
 37:   1412.02   0.010271   51.91  0.002270  (-0.036640 -0.007821 -0.029433)
 38:   1457.52   0.045247  228.66  0.009688  (-0.061710 -0.068778 -0.033897)
 39:   1509.05   0.012844   64.91  0.002656  (-0.039133 -0.001565 -0.033500)
 40:   1535.51   0.011770   59.48  0.002392  ( 0.036442  0.019235  0.026342)
 41:   1604.59   0.046678  235.89  0.009078  (-0.017775  0.084948 -0.039319)
 42:   1658.90   0.011709   59.17  0.002203  ( 0.029739 -0.019075  0.030893)
 43:   1699.23   0.010242   51.76  0.001881  (-0.033074 -0.012062 -0.025328)
 44:   1744.24   0.073513  371.50  0.013152  ( 0.028563 -0.098013  0.052249)
 45:   3199.23   0.000706    3.57  0.000069  ( 0.001214 -0.007563  0.003185)
 46:   3215.23   0.001358    6.86  0.000132  (-0.008669  0.000293 -0.007523)
 47:   3232.09   0.000585    2.96  0.000056  (-0.001054 -0.007357  0.001112)
 48:   3261.31   0.000797    4.03  0.000076  (-0.006727 -0.002052 -0.005178)
 49:   3589.38   0.023696  119.75  0.002060  ( 0.012066  0.043701 -0.002186)
 50:   3745.59   0.019424   98.16  0.001618  ( 0.030830  0.003176  0.025645)

--------------------------
THERMOCHEMISTRY AT 298.15K
--------------------------

Temperature         ... 298.15 K
Pressure            ... 1.00 atm
Total Mass          ... 139.13 AMU

Throughout the following assumptions are being made:
  (1) The electronic state is orbitally nondegenerate
  (2) There are no thermally accessible electronically excited states
  (3) Hindered rotations indicated by low frequency modes are not
      treated as such but are treated as vibrations and this may
      cause some error
  (4) All equations used are the standard statistical mechanics
      equations for an ideal gas
  (5) All vibrations are strictly harmonic

freq.       7.89  E(vib)   ...       0.58
freq.       9.06  E(vib)   ...       0.58
freq.      68.24  E(vib)   ...       0.50
freq.     137.79  E(vib)   ...       0.42
freq.     248.00  E(vib)   ...       0.31
freq.     306.21  E(vib)   ...       0.26
freq.     308.07  E(vib)   ...       0.26
freq.     395.52  E(vib)   ...       0.20
freq.     414.46  E(vib)   ...       0.19
freq.     449.61  E(vib)   ...       0.17
freq.     557.35  E(vib)   ...       0.12
freq.     558.20  E(vib)   ...       0.12
freq.     576.73  E(vib)   ...       0.11
freq.     618.57  E(vib)   ...       0.09
freq.     696.78  E(vib)   ...       0.07
freq.     733.89  E(vib)   ...       0.06
freq.     781.14  E(vib)   ...       0.05
freq.     803.92  E(vib)   ...       0.05
freq.     858.32  E(vib)   ...       0.04
freq.     889.48  E(vib)   ...       0.04
freq.     908.71  E(vib)   ...       0.03
freq.    1015.67  E(vib)   ...       0.02
freq.    1034.01  E(vib)   ...       0.02
freq.    1039.93  E(vib)   ...       0.02
freq.    1083.62  E(vib)   ...       0.02
freq.    1127.75  E(vib)   ...       0.01
freq.    1183.15  E(vib)   ...       0.01
freq.    1185.39  E(vib)   ...       0.01
freq.    1306.82  E(vib)   ...       0.01
freq.    1341.62  E(vib)   ...       0.01
freq.    1412.02  E(vib)   ...       0.00
freq.    1457.52  E(vib)   ...       0.00
freq.    1509.05  E(vib)   ...       0.00
freq.    1535.51  E(vib)   ...       0.00
freq.    1604.59  E(vib)   ...       0.00
freq.    1658.90  E(vib)   ...       0.00
freq.    1699.23  E(vib)   ...       0.00
freq.    1744.24  E(vib)   ...       0.00
freq.    3199.23  E(vib)   ...       0.00
freq.    3215.23  E(vib)   ...       0.00
freq.    3232.09  E(vib)   ...       0.00
freq.    3261.31  E(vib)   ...       0.00
freq.    3589.38  E(vib)   ...       0.00
freq.    3745.59  E(vib)   ...       0.00

------------
INNER ENERGY
------------

The inner energy is: U= E(el) + E(ZPE) + E(vib) + E(rot) + E(trans)
    E(el)   - is the total energy from the electronic structure calculation
              = E(kin-el) + E(nuc-el) + E(el-el) + E(nuc-nuc)
    E(ZPE)  - the the zero temperature vibrational energy from the frequency calculation
    E(vib)  - the the finite temperature correction to E(ZPE) due to population
              of excited vibrational states
    E(rot)  - is the rotational thermal energy
    E(trans)- is the translational thermal energy

Summary of contributions to the inner energy U:
Electronic energy                ...   -491.54209726 Eh
Zero point energy                ...      0.12190425 Eh      76.50 kcal/mol
Thermal vibrational correction   ...      0.00697209 Eh       4.38 kcal/mol
Thermal rotational correction    ...      0.00141627 Eh       0.89 kcal/mol
Thermal translational correction ...      0.00141627 Eh       0.89 kcal/mol
-----------------------------------------------------------------------
Total thermal energy                   -491.41038838 Eh

Summary of corrections to the electronic energy:
(perhaps to be used in another calculation)
Total thermal correction                  0.00980463 Eh       6.15 kcal/mol
Non-thermal (ZPE) correction              0.12190425 Eh      76.50 kcal/mol
-----------------------------------------------------------------------
Total correction                          0.13170888 Eh      82.65 kcal/mol

--------
ENTHALPY
--------

The enthalpy is H = U + kB*T
                kB is Boltzmann's constant
Total free energy                 ...   -491.41038838 Eh
Thermal Enthalpy correction       ...      0.00094421 Eh       0.59 kcal/mol
-----------------------------------------------------------------------
Total Enthalpy                    ...   -491.40944417 Eh

Note: Only C1 symmetry has been detected, increase convergence thresholds
      if your molecule has a higher symmetry. Symmetry factor of 1.0 is
      used for the rotational entropy correction.

Note: Rotational entropy computed according to Herzberg
Infrared and Raman Spectra, Chapter V,1, Van Nostrand Reinhold, 1945
Point Group:  C1, Symmetry Number:   1
Rotational constants in cm-1:     0.051454     0.024885     0.017129

Vibrational entropy computed according to the QRRHO of S. Grimme
Chem.Eur.J. 2012 18 9955

-------
ENTROPY
-------

The entropy contributions are T*S = T*(S(el)+S(vib)+S(rot)+S(trans))
     S(el)   - electronic entropy
     S(vib)  - vibrational entropy
     S(rot)  - rotational entropy
     S(trans)- translational entropy
The entropies will be listed as multiplied by the temperature to get
units of energy

Electronic entropy                ...      0.00000000 Eh      0.00 kcal/mol
Vibrational entropy               ...      0.01330820 Eh      8.35 kcal/mol
Rotational entropy                ...      0.01457519 Eh      9.15 kcal/mol
Translational entropy             ...      0.01933899 Eh     12.14 kcal/mol
-----------------------------------------------------------------------
Final entropy term                ...      0.04722238 Eh     29.63 kcal/mol

In case the symmetry of your molecule has not been determined correctly
or in case you have a reason to use a different symmetry number we print
out the resulting rotational entropy values for sn=1,12 :
 --------------------------------------------------------
|  sn= 1 | S(rot)=       0.01457519 Eh      9.15 kcal/mol|
|  sn= 2 | S(rot)=       0.01392073 Eh      8.74 kcal/mol|
|  sn= 3 | S(rot)=       0.01353790 Eh      8.50 kcal/mol|
|  sn= 4 | S(rot)=       0.01326628 Eh      8.32 kcal/mol|
|  sn= 5 | S(rot)=       0.01305559 Eh      8.19 kcal/mol|
|  sn= 6 | S(rot)=       0.01288344 Eh      8.08 kcal/mol|
|  sn= 7 | S(rot)=       0.01273790 Eh      7.99 kcal/mol|
|  sn= 8 | S(rot)=       0.01261182 Eh      7.91 kcal/mol|
|  sn= 9 | S(rot)=       0.01250061 Eh      7.84 kcal/mol|
|  sn=10 | S(rot)=       0.01240113 Eh      7.78 kcal/mol|
|  sn=11 | S(rot)=       0.01231114 Eh      7.73 kcal/mol|
|  sn=12 | S(rot)=       0.01222899 Eh      7.67 kcal/mol|
 --------------------------------------------------------

-------------------
GIBBS FREE ENERGY
-------------------

                             ****ORCA TERMINATED NORMALLY****
TOTAL RUN TIME: 0 days 0 hours 57 minutes 0 seconds 64 msec
