                         Program Version 5.0.4 -  RELEASE  -
|  1> !B3LYP DEF2-QZVPP
|  2>
|  3> %scf
|  4> smearTemp 5000
|  5> convergence tight
|  6> end
|  7>
|  8> * xyz 0 1
|  9>   C   -6.19125178160671      1.04578685059177     -0.00000001686577
| 10>   C   -7.37580530487043      0.28825949786031     -0.00000001284834
| 11>   C   -7.33908756893839     -1.10768545106982     -0.00000002576604
| 12>   C   -6.11117938173447     -1.77931819998824      0.00000000290657
| 13>   C   -4.92566072561635     -1.04047352586861      0.00000000533049
| 14>   C   -4.96819058552413      0.35823228576941     -0.00000003398085
| 15>   C   -6.24553993017456      2.55508248967342      0.00000000413099
| 16>   H   -5.23843039862032      2.99755933811265     -0.00000003012539
| 17>   H   -6.78052773252599      2.93791704488256      0.88605739423795
| 18>   H   -6.78052780177066      2.93791706461754     -0.88605733399821
| 19>   H   -8.34213499717683      0.80297272229397      0.00000000580428
| 20>   H   -8.27370961744022     -1.67571619441028     -0.00000001783878
| 21>   H   -6.08022998864363     -2.87249607540980      0.00000001903164
| 22>   H   -3.95993407210113     -1.55389094986220      0.00000004701981
| 23>   H   -4.03307011325617      0.92683310280730     -0.00000000703837
| 24> **                         ****END OF INPUT****

CARTESIAN COORDINATES (ANGSTROEM)
---------------------------------
  C     -6.191252    1.045787   -0.000000
  C     -7.375805    0.288259   -0.000000
  C     -7.339088   -1.107685   -0.000000
  C     -6.111179   -1.779318    0.000000
  C     -4.925661   -1.040474    0.000000
  C     -4.968191    0.358232   -0.000000
  C     -6.245540    2.555082    0.000000
  H     -5.238430    2.997559   -0.000000
  H     -6.780528    2.937917    0.886057
  H     -6.780528    2.937917   -0.886057
  H     -8.342135    0.802973    0.000000
  H     -8.273710   -1.675716   -0.000000
  H     -6.080230   -2.872496    0.000000
  H     -3.959934   -1.553891    0.000000
  H     -4.033070    0.926833   -0.000000

 Total Charge           Charge          ....    0
 Multiplicity           Mult            ....    1
 Number of Electrons    NEL             ....   50
 Basis Dimension        Dim             ....  639

ORBITAL ENERGIES
----------------

  NO   OCC          E(Eh)            E(eV)
   0   2.0000     -10.186602      -277.1915
   1   2.0000     -10.177053      -276.9317
   2   2.0000     -10.176733      -276.9230
   3   2.0000     -10.174778      -276.8698
   4   2.0000     -10.174525      -276.8629
   5   2.0000     -10.174328      -276.8575
   6   2.0000     -10.172055      -276.7957
   7   2.0000      -0.852887       -23.2082
   8   2.0000      -0.768768       -20.9192
   9   2.0000      -0.741177       -20.1685
  10   2.0000      -0.682363       -18.5680
  11   2.0000      -0.601845       -16.3770
  12   2.0000      -0.581293       -15.8178
  13   2.0000      -0.508044       -13.8246
  14   2.0000      -0.458553       -12.4779
  15   2.0000      -0.451722       -12.2920
  16   2.0000      -0.418740       -11.3945
  17   2.0000      -0.417203       -11.3527
  18   2.0000      -0.407203       -11.0806
  19   2.0000      -0.383845       -10.4450
  20   2.0000      -0.355047        -9.6613
  21   2.0000      -0.342076        -9.3084
  22   2.0000      -0.338019        -9.1980
  23   1.9991      -0.253270        -6.8918
  24   1.9984      -0.244067        -6.6414
  25   0.0013      -0.015077        -0.4103
  26   0.0010      -0.009948        -0.2707
  27   0.0001       0.023427         0.6375
  28   0.0001       0.036607         0.9961
  29   0.0000       0.046602         1.2681
  30   0.0000       0.067080         1.8253
  31   0.0000       0.076265         2.0753
  32   0.0000       0.085101         2.3157
  33   0.0000       0.090889         2.4732

LOEWDIN ATOMIC CHARGES
----------------------
   0 C :   -0.107771
   1 C :    0.072168
   2 C :    0.057224
   3 C :    0.053486
   4 C :    0.057661
   5 C :    0.067958
   6 C :    0.225287
   7 H :   -0.049960
   8 H :   -0.047399
   9 H :   -0.047399
  10 H :   -0.052513
  11 H :   -0.057396
  12 H :   -0.058879
  13 H :   -0.057493
  14 H :   -0.054972

  Mayer bond orders larger than 0.100000
B(  0-C ,  1-C ) :   1.2346 B(  0-C ,  5-C ) :   1.2559 B(  0-C ,  6-C ) :   0.9389
B(  1-C ,  2-C ) :   1.3452 B(  1-C , 10-H ) :   0.9677 B(  2-C ,  3-C ) :   1.3214
B(  2-C , 11-H ) :   0.9688 B(  3-C ,  4-C ) :   1.3318 B(  3-C , 12-H ) :   0.9666
B(  4-C ,  5-C ) :   1.3340 B(  4-C , 13-H ) :   0.9690 B(  5-C , 14-H ) :   0.9688
B(  6-C ,  7-H ) :   0.9687 B(  6-C ,  8-H ) :   0.9606 B(  6-C ,  9-H ) :   0.9606

FINAL SINGLE POINT ENERGY      -271.504528609370

DIPOLE MOMENT
-------------
                                X             Y             Z
Electronic contribution:      0.12197      -3.38343       0.00000
Nuclear contribution   :     -0.14262       3.54029       0.00000
                        -----------------------------------------
Total Dipole Moment    :     -0.02065       0.15685       0.00000
                        -----------------------------------------
Magnitude (a.u.)       :      0.15820
Magnitude (Debye)      :      0.40212

Rotational constants in cm-1:     0.183668     0.083310     0.057937
Rotational constants in MHz :  5506.217857  2497.567370  1736.898663

                             ****ORCA TERMINATED NORMALLY****
TOTAL RUN TIME: 0 days 0 hours 34 minutes 20 seconds 693 msec
