                         Program Version 5.0.4 -  RELEASE  -
|  1> !B3LYP DEF2-SVP OPT FREQ D4 SOSCF
|  2>
|  3> %geom
|  4> maxIter 1000
|  5> end
|  6>
|  7> * xyz 1 1
|  8>   C   -2.93642400657119      1.52448633955374     -1.00835440393537
|  9>   C   -3.26384386194752      0.31863600012106     -1.71819537577311
| 10>   C   -2.63638325151483     -0.86939210886684     -1.38248891297789
| 11>   C   -1.66671656090727     -0.91053893447515     -0.36639617054953
| 12>   C   -1.34964483282395      0.27810152526376      0.31294382416921
| 13>   C   -1.95054920011320      1.48419434134220      0.02985270703003
| 14>   H   -4.01625866577039      0.35214940864157     -2.49844514156617
| 15>   H   -2.89185387917361     -1.78247849234647     -1.91219677120532
| 16>   H   -1.15985798484683     -1.83671074977457     -0.08578933794533
| 17>   H   6.76525987153493     -0.60891901520206     11.72725311255678
| 18>   H   -1.65898538780680      2.36595275833438      0.60980748629110
| 19>   N   -3.54417686911341      2.68166912170208     -1.31629474941422
| 20>   H   -4.24893048800469      2.73489371322973     -2.04593704812300
| 21>   H   -3.31708880906205      3.54301620662048     -0.82494661298862
| 22>   N   -0.32505828066532      0.22547765887326      1.40243474355625
| 23>   O   -0.05296274064059      1.26628522627674      1.96071063537401
| 24>   O   0.15696494742687     -0.86648299929396      1.63725201550113
| 25>
| 26> **                         ****END OF INPUT****
 Total Charge           Charge          ....    1
 Multiplicity           Mult            ....    1
 Number of Electrons    NEL             ....   72
Dispersion correction           -0.025383783
FINAL SINGLE POINT ENERGY      -491.659218123319
Dispersion correction            ... Starting D4
Dispersion correction           -0.025414987
FINAL SINGLE POINT ENERGY      -491.659453680655
Dispersion correction            ... Starting D4
Dispersion correction           -0.025420516
FINAL SINGLE POINT ENERGY      -491.659489667607
Dispersion correction            ... Starting D4
FINAL SINGLE POINT ENERGY      -491.659507327367
FINAL SINGLE POINT ENERGY      -491.659518907394
FINAL SINGLE POINT ENERGY      -491.659529161321
FINAL SINGLE POINT ENERGY      -491.659538893999
FINAL SINGLE POINT ENERGY      -491.659548326135
FINAL SINGLE POINT ENERGY      -491.659557628958
FINAL SINGLE POINT ENERGY      -491.659567057738
FINAL SINGLE POINT ENERGY      -491.659644582035
FINAL SINGLE POINT ENERGY      -491.659652512215
FINAL SINGLE POINT ENERGY      -491.659660471970
FINAL SINGLE POINT ENERGY      -491.659668775411
FINAL SINGLE POINT ENERGY      -491.659677393959
FINAL SINGLE POINT ENERGY      -491.659686218736
FINAL SINGLE POINT ENERGY      -491.659695218266
Dispersion correction           -0.025420414
FINAL SINGLE POINT ENERGY      -491.659704192123
Dispersion correction            ... Starting D4
Dispersion correction           -0.025420521
FINAL SINGLE POINT ENERGY      -491.659713272966
Dispersion correction            ... Starting D4
                    ***********************HURRAY********************

CARTESIAN COORDINATES (ANGSTROEM)
---------------------------------
  C     -2.998390    1.547421   -1.078138
  C     -3.356143    0.370159   -1.812798
  C     -2.745859   -0.836133   -1.528910
  C     -1.767327   -0.926245   -0.518576
  C     -1.427543    0.234507    0.194663
  C     -2.007599    1.458400   -0.050414
  H     -4.113738    0.439028   -2.597032
  H     -3.021401   -1.730431   -2.091383
  H     -1.269066   -1.865335   -0.275607
  H      7.950594   -0.579728   13.426558
  H     -1.704812    2.327179    0.536087
  N     -3.583449    2.724321   -1.346980
  H     -4.288809    2.810914   -2.073114
  H     -3.337359    3.566596   -0.834555
  N     -0.394207    0.142821    1.263202
  O     -0.146062    1.164037    1.873262
  O      0.114659   -0.947170    1.434948

 Multiplicity           Mult            ....    1
 Number of Electrons    NEL             ....   72
 Basis Dimension        Dim             ....  175

ORBITAL ENERGIES
----------------

  NO   OCC          E(Eh)            E(eV)
   0   2.0000     -19.283497      -524.7306
   1   2.0000     -19.282571      -524.7054
   2   2.0000     -14.681112      -399.4934
   3   2.0000     -14.550327      -395.9345
   4   2.0000     -10.430828      -283.8373
   5   2.0000     -10.394860      -282.8585
   6   2.0000     -10.372444      -282.2485
   7   2.0000     -10.371620      -282.2261
   8   2.0000     -10.369500      -282.1684
   9   2.0000     -10.361912      -281.9620
  10   2.0000      -1.345657       -36.6172
  11   2.0000      -1.174504       -31.9599
  12   2.0000      -1.116464       -30.3805
  13   2.0000      -1.021204       -27.7884
  14   2.0000      -0.939392       -25.5622
  15   2.0000      -0.903096       -24.5745
  16   2.0000      -0.839591       -22.8464
  17   2.0000      -0.787498       -21.4289
  18   2.0000      -0.758119       -20.6295
  19   2.0000      -0.707708       -19.2577
  20   2.0000      -0.688776       -18.7425
  21   2.0000      -0.663033       -18.0420
  22   2.0000      -0.657284       -17.8856
  23   2.0000      -0.647156       -17.6100
  24   2.0000      -0.630686       -17.1618
  25   2.0000      -0.607703       -16.5364
  26   2.0000      -0.597920       -16.2702
  27   2.0000      -0.573964       -15.6183
  28   2.0000      -0.545916       -14.8551
  29   2.0000      -0.528286       -14.3754
  30   2.0000      -0.496578       -13.5126
  31   2.0000      -0.435091       -11.8394
  32   2.0000      -0.428864       -11.6700
  33   2.0000      -0.428392       -11.6571
  34   2.0000      -0.415374       -11.3029
  35   2.0000      -0.367752       -10.0071
  36   0.0000      -0.361842        -9.8462
  37   0.0000      -0.215706        -5.8696
  38   0.0000      -0.168840        -4.5944
  39   0.0000      -0.134997        -3.6735
  40   0.0000      -0.097524        -2.6538

MULLIKEN ATOMIC CHARGES
-----------------------
   0 C :    0.039375
   1 C :    0.062091
   2 C :    0.027042
   3 C :    0.050262
   4 C :    0.158870
   5 C :    0.004082
   6 H :    0.028620
   7 H :    0.052851
   8 H :    0.060711
   9 H :    0.257490
  10 H :    0.037796
  11 N :    0.041933
  12 H :    0.168420
  13 H :    0.169729
  14 N :    0.235123
  15 O :   -0.201531
  16 O :   -0.192866
Sum of atomic charges:    1.0000000

LOEWDIN ATOMIC CHARGES
----------------------
   0 C :    0.072094
   1 C :    0.011633
   2 C :    0.026757
   3 C :    0.069682
   4 C :    0.004793
   5 C :    0.014527
   6 H :    0.052141
   7 H :    0.060037
   8 H :    0.063296
   9 H :    0.257490
  10 H :    0.057461
  11 N :    0.136251
  12 H :    0.113009
  13 H :    0.113755
  14 N :    0.274457
  15 O :   -0.168454
  16 O :   -0.158928

  Mayer bond orders larger than 0.100000
B(  0-C ,  1-C ) :   1.1846 B(  0-C ,  5-C ) :   1.1225 B(  0-C ,  9-H ) :   0.1172
B(  0-C , 11-N ) :   1.4134 B(  1-C ,  2-C ) :   1.4759 B(  1-C ,  6-H ) :   0.9872
B(  1-C ,  9-H ) :   0.1207 B(  2-C ,  3-C ) :   1.2543 B(  2-C ,  7-H ) :   0.9778
B(  3-C ,  4-C ) :   1.3200 B(  3-C ,  8-H ) :   0.9780 B(  3-C ,  9-H ) :   0.2292
B(  4-C ,  5-C ) :   1.4795 B(  4-C , 14-N ) :   0.8330 B(  5-C ,  9-H ) :   0.1410
B(  5-C , 10-H ) :   0.9755 B(  9-H , 11-N ) :   0.2621 B( 11-N , 12-H ) :   0.9284
B( 11-N , 13-H ) :   0.9281 B( 14-N , 15-O ) :   1.5605 B( 14-N , 16-O ) :   1.5635
B( 15-O , 16-O ) :   0.2998

Dispersion correction           -0.025420547
FINAL SINGLE POINT ENERGY      -491.659713050352

DIPOLE MOMENT
-------------
                                X             Y             Z
Electronic contribution:     -0.08400      -0.46963      -1.69849
Nuclear contribution   :      2.09510       1.31592       5.74806
                        -----------------------------------------
Total Dipole Moment    :      2.01111       0.84629       4.04958
                        -----------------------------------------
Magnitude (a.u.)       :      4.59998
Magnitude (Debye)      :     11.69223

Dispersion correction in the Hessian             ... Starting D4

VIBRATIONAL FREQUENCIES
-----------------------

Scaling factor for frequencies =  1.000000000  (already applied!)

   0:         0.00 cm**-1
   1:         0.00 cm**-1
   2:         0.00 cm**-1
   3:         0.00 cm**-1
   4:         0.00 cm**-1
   5:         0.00 cm**-1
   6:        -3.15 cm**-1 ***imaginary mode***
   7:         1.08 cm**-1
   8:         7.63 cm**-1
   9:        50.88 cm**-1
  10:       157.59 cm**-1
  11:       202.11 cm**-1
  12:       215.49 cm**-1
  13:       373.75 cm**-1
  14:       408.23 cm**-1
  15:       415.40 cm**-1
  16:       513.69 cm**-1
  17:       516.66 cm**-1
  18:       538.91 cm**-1
  19:       560.04 cm**-1
  20:       564.00 cm**-1
  21:       668.52 cm**-1
  22:       674.80 cm**-1
  23:       751.01 cm**-1
  24:       816.59 cm**-1
  25:       841.09 cm**-1
  26:       917.57 cm**-1
  27:       941.74 cm**-1
  28:       943.97 cm**-1
  29:      1000.74 cm**-1
  30:      1027.40 cm**-1
  31:      1039.13 cm**-1
  32:      1096.24 cm**-1
  33:      1106.37 cm**-1
  34:      1182.14 cm**-1
  35:      1288.35 cm**-1
  36:      1382.31 cm**-1
  37:      1409.59 cm**-1
  38:      1415.64 cm**-1
  39:      1495.25 cm**-1
  40:      1516.51 cm**-1
  41:      1561.49 cm**-1
  42:      1637.06 cm**-1
  43:      1666.17 cm**-1
  44:      1717.76 cm**-1
  45:      3198.33 cm**-1
  46:      3216.43 cm**-1
  47:      3220.82 cm**-1
  48:      3236.80 cm**-1
  49:      3547.32 cm**-1
  50:      3667.63 cm**-1

IR SPECTRUM
-----------

 Mode   freq       eps      Int      T**2         TX        TY        TZ
       cm**-1   L/(mol*cm) km/mol    a.u.
----------------------------------------------------------------------------
  7:      1.08   0.000000    0.00  0.000000  ( 0.000000  0.000000  0.000000)
  8:      7.63   0.013649   68.98  0.557938  ( 0.538694 -0.169184  0.489003)
  9:     50.88   0.000021    0.11  0.000128  ( 0.008294  0.001860 -0.007479)
 10:    157.59   0.000079    0.40  0.000157  (-0.009427 -0.003038  0.007644)
 11:    202.11   0.001351    6.83  0.002086  ( 0.033099  0.009019 -0.030152)
 12:    215.49   0.000887    4.48  0.001285  ( 0.021288 -0.020605  0.020171)
 13:    373.75   0.001011    5.11  0.000844  ( 0.019599  0.002057  0.021349)
 14:    408.23   0.000853    4.31  0.000652  (-0.014572  0.008186 -0.019299)
 15:    415.40   0.000155    0.78  0.000117  ( 0.008140  0.001101 -0.007007)
 16:    513.69   0.008672   43.82  0.005268  ( 0.069584  0.018922  0.008242)
 17:    516.66   0.012097   61.14  0.007307  (-0.001342 -0.002258  0.085439)
 18:    538.91   0.000625    3.16  0.000362  ( 0.013606  0.003977 -0.012689)
 19:    560.04   0.005521   27.90  0.003077  (-0.050972  0.006873 -0.020764)
 20:    564.00   0.025326  127.99  0.014013  (-0.078442 -0.025710  0.084845)
 21:    668.52   0.004728   23.89  0.002207  ( 0.033844  0.009766 -0.031086)
 22:    674.80   0.000645    3.26  0.000299  ( 0.012671 -0.001070  0.011697)
 23:    751.01   0.003289   16.62  0.001367  ( 0.026919  0.007776 -0.024118)
 24:    816.59   0.003504   17.71  0.001339  ( 0.026299  0.007367 -0.024352)
 25:    841.09   0.004757   24.04  0.001765  (-0.016739 -0.004508 -0.038267)
 26:    917.57   0.003001   15.17  0.001021  (-0.023639 -0.006745  0.020406)
 27:    941.74   0.013205   66.73  0.004376  (-0.041350  0.003250 -0.051531)
 28:    943.97   0.000231    1.17  0.000077  (-0.005928 -0.001581  0.006235)
 29:   1000.74   0.016889   85.35  0.005267  ( 0.042857 -0.008727  0.057912)
 30:   1027.40   0.000001    0.01  0.000000  (-0.000110  0.000005  0.000609)
 31:   1039.13   0.000217    1.10  0.000065  (-0.004583 -0.001179 -0.006547)
 32:   1096.24   0.000083    0.42  0.000024  ( 0.001737 -0.000485  0.004521)
 33:   1106.37   0.001479    7.47  0.000417  ( 0.012565  0.011645  0.011116)
 34:   1182.14   0.016332   82.54  0.004311  (-0.039446  0.007832 -0.051905)
 35:   1288.35   0.010894   55.05  0.002639  (-0.027798 -0.008021 -0.042447)
 36:   1382.31   0.028714  145.11  0.006482  (-0.047117 -0.000394 -0.065285)
 37:   1409.59   0.005521   27.90  0.001222  (-0.023109  0.012962 -0.022809)
 38:   1415.64   0.001638    8.28  0.000361  ( 0.000526 -0.004140  0.018538)
 39:   1495.25   0.000294    1.49  0.000061  (-0.005799  0.005040 -0.001519)
 40:   1516.51   0.049954  252.45  0.010279  ( 0.063421 -0.038295  0.069214)
 41:   1561.49   0.000842    4.26  0.000168  (-0.000155 -0.012657 -0.002850)
 42:   1637.06   0.021484  108.57  0.004095  (-0.035124  0.047273 -0.025036)
 43:   1666.17   0.259627  1312.05  0.048627  (-0.133611  0.083257 -0.154411)
 44:   1717.76   0.045132  228.08  0.008199  ( 0.025426  0.064129  0.058653)
 45:   3198.33   0.000093    0.47  0.000009  ( 0.000652 -0.002915  0.000358)
 46:   3216.43   0.000158    0.80  0.000015  (-0.000478  0.003713 -0.001145)
 47:   3220.82   0.001283    6.48  0.000124  ( 0.001796  0.010577  0.003033)
 48:   3236.80   0.004484   22.66  0.000432  ( 0.003777  0.015696  0.013102)
 49:   3547.32   0.288398  1457.44  0.025371  (-0.097887  0.064127 -0.108059)
 50:   3667.63   0.018064   91.29  0.001537  (-0.021589 -0.016957 -0.027988)

--------------------------
THERMOCHEMISTRY AT 298.15K
--------------------------

Temperature         ... 298.15 K
Pressure            ... 1.00 atm
Total Mass          ... 139.13 AMU

Throughout the following assumptions are being made:
  (1) The electronic state is orbitally nondegenerate
  (2) There are no thermally accessible electronically excited states
  (3) Hindered rotations indicated by low frequency modes are not
      treated as such but are treated as vibrations and this may
      cause some error
  (4) All equations used are the standard statistical mechanics
      equations for an ideal gas
  (5) All vibrations are strictly harmonic

freq.       1.08  E(vib)   ...       0.59
freq.       7.63  E(vib)   ...       0.58
freq.      50.88  E(vib)   ...       0.52
freq.     157.59  E(vib)   ...       0.40
freq.     202.11  E(vib)   ...       0.35
freq.     215.49  E(vib)   ...       0.34
freq.     373.75  E(vib)   ...       0.21
freq.     408.23  E(vib)   ...       0.19
freq.     415.40  E(vib)   ...       0.18
freq.     513.69  E(vib)   ...       0.13
freq.     516.66  E(vib)   ...       0.13
freq.     538.91  E(vib)   ...       0.12
freq.     560.04  E(vib)   ...       0.12
freq.     564.00  E(vib)   ...       0.11
freq.     668.52  E(vib)   ...       0.08
freq.     674.80  E(vib)   ...       0.08
freq.     751.01  E(vib)   ...       0.06
freq.     816.59  E(vib)   ...       0.05
freq.     841.09  E(vib)   ...       0.04
freq.     917.57  E(vib)   ...       0.03
freq.     941.74  E(vib)   ...       0.03
freq.     943.97  E(vib)   ...       0.03
freq.    1000.74  E(vib)   ...       0.02
freq.    1027.40  E(vib)   ...       0.02
freq.    1039.13  E(vib)   ...       0.02
freq.    1096.24  E(vib)   ...       0.02
freq.    1106.37  E(vib)   ...       0.02
freq.    1182.14  E(vib)   ...       0.01
freq.    1288.35  E(vib)   ...       0.01
freq.    1382.31  E(vib)   ...       0.01
freq.    1409.59  E(vib)   ...       0.00
freq.    1415.64  E(vib)   ...       0.00
freq.    1495.25  E(vib)   ...       0.00
freq.    1516.51  E(vib)   ...       0.00
freq.    1561.49  E(vib)   ...       0.00
freq.    1637.06  E(vib)   ...       0.00
freq.    1666.17  E(vib)   ...       0.00
freq.    1717.76  E(vib)   ...       0.00
freq.    3198.33  E(vib)   ...       0.00
freq.    3216.43  E(vib)   ...       0.00
freq.    3220.82  E(vib)   ...       0.00
freq.    3236.80  E(vib)   ...       0.00
freq.    3547.32  E(vib)   ...       0.00
freq.    3667.63  E(vib)   ...       0.00

------------
INNER ENERGY
------------

The inner energy is: U= E(el) + E(ZPE) + E(vib) + E(rot) + E(trans)
    E(el)   - is the total energy from the electronic structure calculation
              = E(kin-el) + E(nuc-el) + E(el-el) + E(nuc-nuc)
    E(ZPE)  - the the zero temperature vibrational energy from the frequency calculation
    E(vib)  - the the finite temperature correction to E(ZPE) due to population
              of excited vibrational states
    E(rot)  - is the rotational thermal energy
    E(trans)- is the translational thermal energy

Summary of contributions to the inner energy U:
Electronic energy                ...   -491.65971305 Eh
Zero point energy                ...      0.12008272 Eh      75.35 kcal/mol
Thermal vibrational correction   ...      0.00719567 Eh       4.52 kcal/mol
Thermal rotational correction    ...      0.00141627 Eh       0.89 kcal/mol
Thermal translational correction ...      0.00141627 Eh       0.89 kcal/mol
-----------------------------------------------------------------------
Total thermal energy                   -491.52960211 Eh

Summary of corrections to the electronic energy:
(perhaps to be used in another calculation)
Total thermal correction                  0.01002822 Eh       6.29 kcal/mol
Non-thermal (ZPE) correction              0.12008272 Eh      75.35 kcal/mol
-----------------------------------------------------------------------
Total correction                          0.13011094 Eh      81.65 kcal/mol

--------
ENTHALPY
--------

The enthalpy is H = U + kB*T
                kB is Boltzmann's constant
Total free energy                 ...   -491.52960211 Eh
Thermal Enthalpy correction       ...      0.00094421 Eh       0.59 kcal/mol
-----------------------------------------------------------------------
Total Enthalpy                    ...   -491.52865791 Eh

Note: Only C1 symmetry has been detected, increase convergence thresholds
      if your molecule has a higher symmetry. Symmetry factor of 1.0 is
      used for the rotational entropy correction.

Note: Rotational entropy computed according to Herzberg
Infrared and Raman Spectra, Chapter V,1, Van Nostrand Reinhold, 1945
Point Group:  C1, Symmetry Number:   1
Rotational constants in cm-1:     0.083064     0.021664     0.017303

Vibrational entropy computed according to the QRRHO of S. Grimme
Chem.Eur.J. 2012 18 9955

-------
ENTROPY
-------

The entropy contributions are T*S = T*(S(el)+S(vib)+S(rot)+S(trans))
     S(el)   - electronic entropy
     S(vib)  - vibrational entropy
     S(rot)  - rotational entropy
     S(trans)- translational entropy
The entropies will be listed as multiplied by the temperature to get
units of energy

Electronic entropy                ...      0.00000000 Eh      0.00 kcal/mol
Vibrational entropy               ...      0.01474506 Eh      9.25 kcal/mol
Rotational entropy                ...      0.01440975 Eh      9.04 kcal/mol
Translational entropy             ...      0.01933899 Eh     12.14 kcal/mol
-----------------------------------------------------------------------
Final entropy term                ...      0.04849381 Eh     30.43 kcal/mol

In case the symmetry of your molecule has not been determined correctly
or in case you have a reason to use a different symmetry number we print
out the resulting rotational entropy values for sn=1,12 :
 --------------------------------------------------------
|  sn= 1 | S(rot)=       0.01440975 Eh      9.04 kcal/mol|
|  sn= 2 | S(rot)=       0.01375530 Eh      8.63 kcal/mol|
|  sn= 3 | S(rot)=       0.01337247 Eh      8.39 kcal/mol|
|  sn= 4 | S(rot)=       0.01310084 Eh      8.22 kcal/mol|
|  sn= 5 | S(rot)=       0.01289015 Eh      8.09 kcal/mol|
|  sn= 6 | S(rot)=       0.01271801 Eh      7.98 kcal/mol|
|  sn= 7 | S(rot)=       0.01257246 Eh      7.89 kcal/mol|
|  sn= 8 | S(rot)=       0.01244638 Eh      7.81 kcal/mol|
|  sn= 9 | S(rot)=       0.01233518 Eh      7.74 kcal/mol|
|  sn=10 | S(rot)=       0.01223570 Eh      7.68 kcal/mol|
|  sn=11 | S(rot)=       0.01214571 Eh      7.62 kcal/mol|
|  sn=12 | S(rot)=       0.01206355 Eh      7.57 kcal/mol|
 --------------------------------------------------------

-------------------
GIBBS FREE ENERGY
-------------------

                             ****ORCA TERMINATED NORMALLY****
TOTAL RUN TIME: 0 days 1 hours 20 minutes 32 seconds 286 msec
