                         Program Version 5.0.4 -  RELEASE  -
|  1> !B3LYP/G DEF2-SVP OPT FREQ D4 SOSCF
|  2>
|  3> %geom
|  4> convergence tight
|  5> maxIter 1000
|  6> end
|  7>
|  8> * xyz 1 1
|  9>    C       -5.69598        1.01126        0.34598
| 10>    C       -6.61309        1.67603       -0.50369
| 11>    C       -7.17988        1.02714       -1.57305
| 12>    C       -6.81707       -0.30677       -1.80521
| 13>    C       -5.91124       -1.00333       -0.99572
| 14>    C       -5.36203       -0.34282        0.07406
| 15>    C       -5.07339        1.71126        1.49349
| 16>    H       -5.06890        1.07922        2.38655
| 17>    H       -5.55721        2.65981        1.71609
| 18>    H       -4.01539        1.91363        1.27162
| 19>    H       -6.86887        2.70718       -0.30049
| 20>    H       -7.89032        1.51195       -2.22752
| 21>    H       -5.66416       -2.03004       -1.22483
| 22>    H       -4.66359       -0.85370        0.72411
| 23>    N       -7.41541       -1.00159       -2.94014
| 24>    O       -6.69310       -1.74363       -3.58136
| 25>    O       -8.59281       -0.78473       -3.15682
| 26>    H      -15.60116       -9.88610      -13.01405
| 27> **                         ****END OF INPUT****
 Total Charge           Charge          ....    1
 Multiplicity           Mult            ....    1
 Number of Electrons    NEL             ....   72
Dispersion correction           -0.026628851
FINAL SINGLE POINT ENERGY      -475.866228003250
Dispersion correction            ... Starting D4
Dispersion correction           -0.026519159
FINAL SINGLE POINT ENERGY      -475.867029057180
Dispersion correction            ... Starting D4
Dispersion correction           -0.026504603
FINAL SINGLE POINT ENERGY      -475.867062861059
Dispersion correction            ... Starting D4
FINAL SINGLE POINT ENERGY      -475.867085250036
FINAL SINGLE POINT ENERGY      -475.867103765475
FINAL SINGLE POINT ENERGY      -475.867117904982
FINAL SINGLE POINT ENERGY      -475.867130778141
FINAL SINGLE POINT ENERGY      -475.867143397881
FINAL SINGLE POINT ENERGY      -475.867155820240
FINAL SINGLE POINT ENERGY      -475.867168227498
FINAL SINGLE POINT ENERGY      -475.867193219528
FINAL SINGLE POINT ENERGY      -475.867205617258
FINAL SINGLE POINT ENERGY      -475.867217893730
FINAL SINGLE POINT ENERGY      -475.867230075329
FINAL SINGLE POINT ENERGY      -475.867242172654
FINAL SINGLE POINT ENERGY      -475.867254177298
FINAL SINGLE POINT ENERGY      -475.867266103894
Dispersion correction           -0.026504021
FINAL SINGLE POINT ENERGY      -475.867277924395
Dispersion correction            ... Starting D4
Dispersion correction           -0.026504112
FINAL SINGLE POINT ENERGY      -475.867289666459
Dispersion correction            ... Starting D4
                    ***********************HURRAY********************

CARTESIAN COORDINATES (ANGSTROEM)
---------------------------------
  C     -5.637374    1.073917    0.405617
  C     -6.573781    1.731590   -0.441053
  C     -7.154621    1.069452   -1.505586
  C     -6.790876   -0.272476   -1.734151
  C     -5.868066   -0.962972   -0.925943
  C     -5.301686   -0.288110    0.136698
  C     -4.998799    1.785746    1.541944
  H     -4.990614    1.159145    2.450627
  H     -5.475939    2.749681    1.760736
  H     -3.931455    1.976810    1.308802
  H     -6.834567    2.772609   -0.240457
  H     -7.882012    1.550867   -2.160220
  H     -5.618500   -1.999805   -1.154048
  H     -4.585606   -0.797760    0.785146
  N     -7.401953   -0.978270   -2.856708
  O     -6.701435   -1.768214   -3.461930
  O     -8.567111   -0.722374   -3.100482
  H    -16.369204  -10.735065  -14.119973

 Multiplicity           Mult            ....    1
 Number of Electrons    NEL             ....   72
 Basis Dimension        Dim             ....  180

ORBITAL ENERGIES
----------------

  NO   OCC          E(Eh)            E(eV)
   0   2.0000     -19.312811      -525.5283
   1   2.0000     -19.312509      -525.5201
   2   2.0000     -14.701664      -400.0526
   3   2.0000     -10.414634      -283.3966
   4   2.0000     -10.388341      -282.6811
   5   2.0000     -10.367863      -282.1239
   6   2.0000     -10.366535      -282.0878
   7   2.0000     -10.362086      -281.9667
   8   2.0000     -10.360315      -281.9185
   9   2.0000     -10.332509      -281.1619
  10   2.0000      -1.370439       -37.2915
  11   2.0000      -1.197235       -32.5784
  12   2.0000      -1.035220       -28.1698
  13   2.0000      -0.962341       -26.1866
  14   2.0000      -0.914745       -24.8915
  15   2.0000      -0.881863       -23.9967
  16   2.0000      -0.796250       -21.6671
  17   2.0000      -0.777793       -21.1648
  18   2.0000      -0.729447       -19.8492
  19   2.0000      -0.694153       -18.8889
  20   2.0000      -0.684457       -18.6250
  21   2.0000      -0.652763       -17.7626
  22   2.0000      -0.629104       -17.1188
  23   2.0000      -0.625676       -17.0255
  24   2.0000      -0.600032       -16.3277
  25   2.0000      -0.593151       -16.1405
  26   2.0000      -0.570656       -15.5283
  27   2.0000      -0.536766       -14.6061
  28   2.0000      -0.530282       -14.4297
  29   2.0000      -0.522439       -14.2163
  30   2.0000      -0.507192       -13.8014
  31   2.0000      -0.454517       -12.3680
  32   2.0000      -0.450259       -12.2522
  33   2.0000      -0.441822       -12.0226
  34   2.0000      -0.426717       -11.6116
  35   2.0000      -0.396813       -10.7978
  36   0.0000      -0.391394       -10.6504
  37   0.0000      -0.224734        -6.1153
  38   0.0000      -0.172789        -4.7018
  39   0.0000      -0.160251        -4.3606
  40   0.0000      -0.065875        -1.7926

MULLIKEN ATOMIC CHARGES
-----------------------
   0 C :   -0.013944
   1 C :    0.018871
   2 C :    0.064787
   3 C :    0.135675
   4 C :    0.061413
   5 C :    0.018943
   6 C :    0.061078
   7 H :    0.076792
   8 H :    0.059254
   9 H :    0.091468
  10 H :    0.038721
  11 H :    0.050370
  12 H :    0.050040
  13 H :    0.038769
  14 N :    0.240686
  15 O :   -0.159419
  16 O :   -0.159317
  17 H :    0.325812
Sum of atomic charges:    1.0000000

LOEWDIN ATOMIC CHARGES
----------------------
   0 C :    0.081987
   1 C :    0.021564
   2 C :    0.033460
   3 C :    0.050707
   4 C :    0.026737
   5 C :    0.029095
   6 C :   -0.029044
   7 H :    0.066283
   8 H :    0.050503
   9 H :    0.078708
  10 H :    0.054722
  11 H :    0.062153
  12 H :    0.061918
  13 H :    0.054750
  14 N :    0.275521
  15 O :   -0.122530
  16 O :   -0.122345
  17 H :    0.325812

  Mayer bond orders larger than 0.100000
B(  0-C ,  1-C ) :   1.2592 B(  0-C ,  5-C ) :   1.2314 B(  0-C ,  6-C ) :   1.1052
B(  0-C , 17-H ) :   0.1972 B(  1-C ,  2-C ) :   1.4272 B(  1-C , 10-H ) :   0.9851
B(  2-C ,  3-C ) :   1.2798 B(  2-C , 11-H ) :   0.9871 B(  3-C ,  4-C ) :   1.2881
B(  3-C , 14-N ) :   0.8633 B(  3-C , 17-H ) :   0.2076 B(  4-C ,  5-C ) :   1.4353
B(  4-C , 12-H ) :   0.9876 B(  5-C , 13-H ) :   0.9878 B(  6-C ,  7-H ) :   0.9313
B(  6-C ,  8-H ) :   0.9562 B(  6-C ,  9-H ) :   0.9126 B( 14-N , 15-O ) :   1.5311
B( 14-N , 16-O ) :   1.5280 B( 15-O , 16-O ) :   0.2926 B( 16-O , 17-H ) :   0.1053

Dispersion correction           -0.026504177
FINAL SINGLE POINT ENERGY      -475.867289599810

DIPOLE MOMENT
-------------
                                X             Y             Z
Electronic contribution:     -2.09669      -2.50085      -5.20585
Nuclear contribution   :     -2.70624      -2.76681      -0.58505
                        -----------------------------------------
Total Dipole Moment    :     -4.80294      -5.26766      -5.79090
                        -----------------------------------------
Magnitude (a.u.)       :      9.18428
Magnitude (Debye)      :     23.34458

Dispersion correction in the Hessian             ... Starting D4

VIBRATIONAL FREQUENCIES
-----------------------

Scaling factor for frequencies =  1.000000000  (already applied!)

   0:         0.00 cm**-1
   1:         0.00 cm**-1
   2:         0.00 cm**-1
   3:         0.00 cm**-1
   4:         0.00 cm**-1
   5:         0.00 cm**-1
   6:        -8.06 cm**-1 ***imaginary mode***
   7:        -4.50 cm**-1 ***imaginary mode***
   8:        -2.31 cm**-1 ***imaginary mode***
   9:         8.49 cm**-1
  10:        76.63 cm**-1
  11:        93.83 cm**-1
  12:       198.93 cm**-1
  13:       240.98 cm**-1
  14:       349.35 cm**-1
  15:       354.78 cm**-1
  16:       392.13 cm**-1
  17:       429.29 cm**-1
  18:       540.50 cm**-1
  19:       590.40 cm**-1
  20:       620.35 cm**-1
  21:       684.20 cm**-1
  22:       752.91 cm**-1
  23:       789.93 cm**-1
  24:       822.97 cm**-1
  25:       844.96 cm**-1
  26:       855.92 cm**-1
  27:       980.49 cm**-1
  28:       991.61 cm**-1
  29:      1007.40 cm**-1
  30:      1016.36 cm**-1
  31:      1022.96 cm**-1
  32:      1138.69 cm**-1
  33:      1145.21 cm**-1
  34:      1202.68 cm**-1
  35:      1253.94 cm**-1
  36:      1292.56 cm**-1
  37:      1345.04 cm**-1
  38:      1379.25 cm**-1
  39:      1416.99 cm**-1
  40:      1424.86 cm**-1
  41:      1435.44 cm**-1
  42:      1457.29 cm**-1
  43:      1486.57 cm**-1
  44:      1493.91 cm**-1
  45:      1604.14 cm**-1
  46:      1662.11 cm**-1
  47:      2992.00 cm**-1
  48:      3065.03 cm**-1
  49:      3155.54 cm**-1
  50:      3204.65 cm**-1
  51:      3209.31 cm**-1
  52:      3230.12 cm**-1
  53:      3230.50 cm**-1

IR SPECTRUM
-----------

 Mode   freq       eps      Int      T**2         TX        TY        TZ
       cm**-1   L/(mol*cm) km/mol    a.u.
----------------------------------------------------------------------------
  9:      8.49   0.021343  107.86  0.784556  (-0.429308 -0.458806 -0.624298)
 10:     76.63   0.000597    3.02  0.002432  ( 0.027542  0.031149  0.026509)
 11:     93.83   0.000193    0.98  0.000643  ( 0.018395  0.012960 -0.011705)
 12:    198.93   0.000501    2.53  0.000786  ( 0.018205 -0.021087  0.003142)
 13:    240.98   0.000654    3.30  0.000847  (-0.010382 -0.022448  0.015333)
 14:    349.35   0.002544   12.86  0.002272  (-0.026863 -0.023391 -0.031681)
 15:    354.78   0.000208    1.05  0.000183  ( 0.002786 -0.010810  0.007610)
 16:    392.13   0.000590    2.98  0.000470  (-0.012002 -0.012687 -0.012839)
 17:    429.29   0.000623    3.15  0.000453  ( 0.021268 -0.000781  0.000094)
 18:    540.50   0.002237   11.31  0.001292  (-0.028428 -0.018936  0.011180)
 19:    590.40   0.000039    0.20  0.000021  ( 0.003172 -0.003236 -0.000161)
 20:    620.35   0.008920   45.08  0.004487  ( 0.032625  0.035217  0.046719)
 21:    684.20   0.000884    4.47  0.000403  ( 0.013844  0.014539 -0.000260)
 22:    752.91   0.004999   25.26  0.002072  ( 0.023504  0.013982 -0.036385)
 23:    789.93   0.002142   10.82  0.000846  (-0.011746 -0.017021 -0.020455)
 24:    822.97   0.001366    6.90  0.000518  (-0.011703 -0.013413 -0.014177)
 25:    844.96   0.040706  205.71  0.015034  ( 0.059652  0.066499  0.083982)
 26:    855.92   0.004015   20.29  0.001464  (-0.012787  0.006766  0.035421)
 27:    980.49   0.038768  195.92  0.012339  ( 0.061763  0.058090  0.071761)
 28:    991.61   0.003275   16.55  0.001031  (-0.025292 -0.018594  0.006721)
 29:   1007.40   0.000159    0.80  0.000049  ( 0.002591  0.004644  0.004579)
 30:   1016.36   0.001467    7.41  0.000451  ( 0.012084  0.010710  0.013776)
 31:   1022.96   0.005978   30.21  0.001824  (-0.031746 -0.022905 -0.017063)
 32:   1138.69   0.008607   43.49  0.002359  ( 0.035469  0.006595  0.032514)
 33:   1145.21   0.039541  199.82  0.010775  (-0.049462 -0.060347 -0.068458)
 34:   1202.68   0.042554  215.05  0.011042  ( 0.051204  0.056431  0.072356)
 35:   1253.94   0.080605  407.34  0.020060  (-0.070705 -0.074658 -0.097400)
 36:   1292.56   0.008649   43.71  0.002088  ( 0.018796  0.027500  0.031282)
 37:   1345.04   0.075738  382.75  0.017572  ( 0.077310  0.052787  0.093855)
 38:   1379.25   0.004182   21.13  0.000946  ( 0.013131  0.026700  0.007802)
 39:   1416.99   0.001850    9.35  0.000407  ( 0.018078  0.007270 -0.005269)
 40:   1424.86   0.002905   14.68  0.000636  (-0.014891 -0.014066 -0.014716)
 41:   1435.44   0.008409   42.49  0.001828  (-0.018942  0.037965 -0.005281)
 42:   1457.29   0.022386  113.13  0.004794  ( 0.052093  0.016360  0.042571)
 43:   1486.57   0.005971   30.18  0.001253  ( 0.017786  0.001385  0.030581)
 44:   1493.91   0.045803  231.47  0.009568  ( 0.041309  0.052670  0.071325)
 45:   1604.14   0.026868  135.78  0.005227  (-0.062232  0.033616  0.014964)
 46:   1662.11   0.359843  1818.50  0.067561  (-0.127528 -0.139084 -0.178754)
 47:   2992.00   0.117125  591.90  0.012216  ( 0.056782  0.057112  0.075697)
 48:   3065.03   0.000530    2.68  0.000054  ( 0.000055  0.000960  0.007284)
 49:   3155.54   0.016459   83.18  0.001628  ( 0.018478  0.022044  0.028290)
 50:   3204.65   0.000452    2.28  0.000044  (-0.002793 -0.004763 -0.003672)
 51:   3209.31   0.000731    3.70  0.000071  (-0.004662 -0.003738 -0.005949)
 52:   3230.12   0.003052   15.42  0.000295  ( 0.009107 -0.014443  0.001814)
 53:   3230.50   0.000798    4.03  0.000077  (-0.005387  0.005080 -0.004715)

--------------------------
THERMOCHEMISTRY AT 298.15K
--------------------------

Temperature         ... 298.15 K
Pressure            ... 1.00 atm
Total Mass          ... 138.15 AMU

Throughout the following assumptions are being made:
  (1) The electronic state is orbitally nondegenerate
  (2) There are no thermally accessible electronically excited states
  (3) Hindered rotations indicated by low frequency modes are not
      treated as such but are treated as vibrations and this may
      cause some error
  (4) All equations used are the standard statistical mechanics
      equations for an ideal gas
  (5) All vibrations are strictly harmonic

freq.       8.49  E(vib)   ...       0.58
freq.      76.63  E(vib)   ...       0.49
freq.      93.83  E(vib)   ...       0.47
freq.     198.93  E(vib)   ...       0.35
freq.     240.98  E(vib)   ...       0.31
freq.     349.35  E(vib)   ...       0.23
freq.     354.78  E(vib)   ...       0.22
freq.     392.13  E(vib)   ...       0.20
freq.     429.29  E(vib)   ...       0.18
freq.     540.50  E(vib)   ...       0.12
freq.     590.40  E(vib)   ...       0.10
freq.     620.35  E(vib)   ...       0.09
freq.     684.20  E(vib)   ...       0.07
freq.     752.91  E(vib)   ...       0.06
freq.     789.93  E(vib)   ...       0.05
freq.     822.97  E(vib)   ...       0.05
freq.     844.96  E(vib)   ...       0.04
freq.     855.92  E(vib)   ...       0.04
freq.     980.49  E(vib)   ...       0.02
freq.     991.61  E(vib)   ...       0.02
freq.    1007.40  E(vib)   ...       0.02
freq.    1016.36  E(vib)   ...       0.02
freq.    1022.96  E(vib)   ...       0.02
freq.    1138.69  E(vib)   ...       0.01
freq.    1145.21  E(vib)   ...       0.01
freq.    1202.68  E(vib)   ...       0.01
freq.    1253.94  E(vib)   ...       0.01
freq.    1292.56  E(vib)   ...       0.01
freq.    1345.04  E(vib)   ...       0.01
freq.    1379.25  E(vib)   ...       0.01
freq.    1416.99  E(vib)   ...       0.00
freq.    1424.86  E(vib)   ...       0.00
freq.    1435.44  E(vib)   ...       0.00
freq.    1457.29  E(vib)   ...       0.00
freq.    1486.57  E(vib)   ...       0.00
freq.    1493.91  E(vib)   ...       0.00
freq.    1604.14  E(vib)   ...       0.00
freq.    1662.11  E(vib)   ...       0.00
freq.    2992.00  E(vib)   ...       0.00
freq.    3065.03  E(vib)   ...       0.00
freq.    3155.54  E(vib)   ...       0.00
freq.    3204.65  E(vib)   ...       0.00
freq.    3209.31  E(vib)   ...       0.00
freq.    3230.12  E(vib)   ...       0.00
freq.    3230.50  E(vib)   ...       0.00

------------
INNER ENERGY
------------

The inner energy is: U= E(el) + E(ZPE) + E(vib) + E(rot) + E(trans)
    E(el)   - is the total energy from the electronic structure calculation
              = E(kin-el) + E(nuc-el) + E(el-el) + E(nuc-nuc)
    E(ZPE)  - the the zero temperature vibrational energy from the frequency calculation
    E(vib)  - the the finite temperature correction to E(ZPE) due to population
              of excited vibrational states
    E(rot)  - is the rotational thermal energy
    E(trans)- is the translational thermal energy

Summary of contributions to the inner energy U:
Electronic energy                ...   -475.86728960 Eh
Zero point energy                ...      0.12869643 Eh      80.76 kcal/mol
Thermal vibrational correction   ...      0.00616188 Eh       3.87 kcal/mol
Thermal rotational correction    ...      0.00141627 Eh       0.89 kcal/mol
Thermal translational correction ...      0.00141627 Eh       0.89 kcal/mol
-----------------------------------------------------------------------
Total thermal energy                   -475.72959874 Eh

Summary of corrections to the electronic energy:
(perhaps to be used in another calculation)
Total thermal correction                  0.00899443 Eh       5.64 kcal/mol
Non-thermal (ZPE) correction              0.12869643 Eh      80.76 kcal/mol
-----------------------------------------------------------------------
Total correction                          0.13769086 Eh      86.40 kcal/mol

--------
ENTHALPY
--------

The enthalpy is H = U + kB*T
                kB is Boltzmann's constant
Total free energy                 ...   -475.72959874 Eh
Thermal Enthalpy correction       ...      0.00094421 Eh       0.59 kcal/mol
-----------------------------------------------------------------------
Total Enthalpy                    ...   -475.72865454 Eh

Note: Only C1 symmetry has been detected, increase convergence thresholds
      if your molecule has a higher symmetry. Symmetry factor of 1.0 is
      used for the rotational entropy correction.

Note: Rotational entropy computed according to Herzberg
Infrared and Raman Spectra, Chapter V,1, Van Nostrand Reinhold, 1945
Point Group:  C1, Symmetry Number:   1
Rotational constants in cm-1:     0.121855     0.016861     0.015277

Vibrational entropy computed according to the QRRHO of S. Grimme
Chem.Eur.J. 2012 18 9955

-------
ENTROPY
-------

The entropy contributions are T*S = T*(S(el)+S(vib)+S(rot)+S(trans))
     S(el)   - electronic entropy
     S(vib)  - vibrational entropy
     S(rot)  - rotational entropy
     S(trans)- translational entropy
The entropies will be listed as multiplied by the temperature to get
units of energy

Electronic entropy                ...      0.00000000 Eh      0.00 kcal/mol
Vibrational entropy               ...      0.01119175 Eh      7.02 kcal/mol
Rotational entropy                ...      0.01440597 Eh      9.04 kcal/mol
Translational entropy             ...      0.01932890 Eh     12.13 kcal/mol
-----------------------------------------------------------------------
Final entropy term                ...      0.04492662 Eh     28.19 kcal/mol

In case the symmetry of your molecule has not been determined correctly
or in case you have a reason to use a different symmetry number we print
out the resulting rotational entropy values for sn=1,12 :
 --------------------------------------------------------
|  sn= 1 | S(rot)=       0.01440597 Eh      9.04 kcal/mol|
|  sn= 2 | S(rot)=       0.01375151 Eh      8.63 kcal/mol|
|  sn= 3 | S(rot)=       0.01336868 Eh      8.39 kcal/mol|
|  sn= 4 | S(rot)=       0.01309706 Eh      8.22 kcal/mol|
|  sn= 5 | S(rot)=       0.01288637 Eh      8.09 kcal/mol|
|  sn= 6 | S(rot)=       0.01271422 Eh      7.98 kcal/mol|
|  sn= 7 | S(rot)=       0.01256868 Eh      7.89 kcal/mol|
|  sn= 8 | S(rot)=       0.01244260 Eh      7.81 kcal/mol|
|  sn= 9 | S(rot)=       0.01233139 Eh      7.74 kcal/mol|
|  sn=10 | S(rot)=       0.01223191 Eh      7.68 kcal/mol|
|  sn=11 | S(rot)=       0.01214192 Eh      7.62 kcal/mol|
|  sn=12 | S(rot)=       0.01205977 Eh      7.57 kcal/mol|
 --------------------------------------------------------

-------------------
GIBBS FREE ENERGY
-------------------

                             ****ORCA TERMINATED NORMALLY****
TOTAL RUN TIME: 0 days 1 hours 17 minutes 39 seconds 2 msec
