                         Program Version 4.2.1 -  RELEASE  -
|  1> !B3LYP DEF2-SVP D4 OPT FREQ
|  2>
|  3> * xyz 0 1
|  4>    C       -6.32747        0.33008       -0.61134
|  5>    C       -6.46825        0.10555       -2.02147
|  6>    C       -6.05566       -1.14447       -2.55057
|  7>    C       -5.49728       -2.12790       -1.73454
|  8>    C       -5.36934       -1.90287       -0.36322
|  9>    C       -5.78941       -0.69006        0.19694
| 10>    C       -6.74956        1.61339        0.07438
| 11>    H       -5.89835        2.40324       -0.12907
| 12>    H       -6.87150        1.48495        1.24668
| 13>    H       -7.77333        1.95735       -0.35324
| 14>    H       -6.17442       -1.36990       -3.60464
| 15>    H       -5.16993       -3.07119       -2.16719
| 16>    H       -4.94941       -2.67315        0.27097
| 17>    H       -5.69737       -0.55127        1.27370
| 18>    N       -7.01573        1.08622       -2.91826
| 19>    O       -7.73516        0.63787       -3.93230
| 20>    O       -6.77332        2.47640       -2.64987
| 21> **                         ****END OF INPUT****
 Total Charge           Charge          ....    0
 Multiplicity           Mult            ....    1
 Number of Electrons    NEL             ....   72
Dispersion correction           -0.028727280
FINAL SINGLE POINT ENERGY      -475.416346866430
Dispersion correction            ...
Dispersion correction           -0.029066963
FINAL SINGLE POINT ENERGY      -475.463414224604
Dispersion correction            ...
Dispersion correction           -0.029268994
FINAL SINGLE POINT ENERGY      -475.475692733209
Dispersion correction            ...
FINAL SINGLE POINT ENERGY      -475.478634608734
FINAL SINGLE POINT ENERGY      -475.477788522751
FINAL SINGLE POINT ENERGY      -475.479437548797
FINAL SINGLE POINT ENERGY      -475.479563366247
FINAL SINGLE POINT ENERGY      -475.479624415386
FINAL SINGLE POINT ENERGY      -475.479695358831
Dispersion correction           -0.029148495
FINAL SINGLE POINT ENERGY      -475.479711279127
Dispersion correction            ...
Dispersion correction           -0.029147570
FINAL SINGLE POINT ENERGY      -475.479718819185
Dispersion correction            ...
                    ***********************HURRAY********************

CARTESIAN COORDINATES (ANGSTROEM)
---------------------------------
  C     -6.328633    0.349360   -0.599199
  C     -6.450533    0.081239   -1.978347
  C     -6.068146   -1.138683   -2.545818
  C     -5.527441   -2.136400   -1.741445
  C     -5.393421   -1.907934   -0.368951
  C     -5.794378   -0.690645    0.181419
  C     -6.732428    1.635016    0.073482
  H     -6.066568    2.460641   -0.218016
  H     -6.692746    1.513162    1.166060
  H     -7.745697    1.949698   -0.213843
  H     -6.208617   -1.276951   -3.617392
  H     -5.217092   -3.086687   -2.181255
  H     -4.978018   -2.683715    0.279214
  H     -5.692966   -0.528655    1.257605
  N     -7.000887    1.084164   -2.912832
  O     -7.405750    0.686535   -3.993686
  O     -7.012169    2.254093   -2.560037

 Multiplicity           Mult            ....    1
 Number of Electrons    NEL             ....   72
 Basis Dimension        Dim             ....  175

ORBITAL ENERGIES
----------------

  NO   OCC          E(Eh)            E(eV)
   0   2.0000     -19.159058      -521.3445
   1   2.0000     -19.158280      -521.3233
   2   2.0000     -14.556216      -396.0948
   3   2.0000     -10.247730      -278.8549
   4   2.0000     -10.228831      -278.3407
   5   2.0000     -10.215473      -277.9772
   6   2.0000     -10.215218      -277.9702
   7   2.0000     -10.211008      -277.8556
   8   2.0000     -10.210216      -277.8341
   9   2.0000     -10.195267      -277.4273
  10   2.0000      -1.219871       -33.1944
  11   2.0000      -1.045014       -28.4363
  12   2.0000      -0.884231       -24.0612
  13   2.0000      -0.799654       -21.7597
  14   2.0000      -0.784406       -21.3448
  15   2.0000      -0.712006       -19.3747
  16   2.0000      -0.676175       -18.3997
  17   2.0000      -0.616701       -16.7813
  18   2.0000      -0.586549       -15.9608
  19   2.0000      -0.546125       -14.8608
  20   2.0000      -0.538580       -14.6555
  21   2.0000      -0.508653       -13.8412
  22   2.0000      -0.500982       -13.6324
  23   2.0000      -0.481409       -13.0998
  24   2.0000      -0.455715       -12.4006
  25   2.0000      -0.432500       -11.7689
  26   2.0000      -0.428307       -11.6548
  27   2.0000      -0.402189       -10.9441
  28   2.0000      -0.380566       -10.3557
  29   2.0000      -0.378495       -10.2994
  30   2.0000      -0.370089       -10.0706
  31   2.0000      -0.309445        -8.4204
  32   2.0000      -0.305778        -8.3206
  33   2.0000      -0.294529        -8.0145
  34   2.0000      -0.277816        -7.5598
  35   2.0000      -0.270710        -7.3664
  36   0.0000      -0.085316        -2.3216
  37   0.0000      -0.028684        -0.7805
  38   0.0000      -0.007135        -0.1942
  39   0.0000       0.053630         1.4593
  40   0.0000       0.076770         2.0890

MULLIKEN ATOMIC CHARGES
-----------------------
   0 C :   -0.082936
   1 C :    0.119235
   2 C :   -0.001094
   3 C :    0.018734
   4 C :    0.058064
   5 C :   -0.049303
   6 C :    0.135220
   7 H :    0.042967
   8 H :    0.005455
   9 H :    0.026713
  10 H :    0.007531
  11 H :   -0.004372
  12 H :   -0.002765
  13 H :   -0.013875
  14 N :    0.227362
  15 O :   -0.240725
  16 O :   -0.246210
Sum of atomic charges:   -0.0000000

LOEWDIN ATOMIC CHARGES
----------------------
   0 C :    0.000248
   1 C :   -0.025478
   2 C :   -0.001186
   3 C :   -0.022822
   4 C :   -0.000637
   5 C :   -0.023060
   6 C :   -0.044038
   7 H :    0.044686
   8 H :    0.025880
   9 H :    0.037917
  10 H :    0.040293
  11 H :    0.033311
  12 H :    0.033983
  13 H :    0.030889
  14 N :    0.275010
  15 O :   -0.205553
  16 O :   -0.199442

  Mayer bond orders larger than 0.100000
B(  0-C ,  1-C ) :   1.3688 B(  0-C ,  5-C ) :   1.3830 B(  0-C ,  6-C ) :   1.1097
B(  1-C ,  2-C ) :   1.3796 B(  1-C , 14-N ) :   0.8592 B(  2-C ,  3-C ) :   1.3601
B(  2-C , 10-H ) :   0.9797 B(  3-C ,  4-C ) :   1.3562 B(  3-C , 11-H ) :   0.9834
B(  4-C ,  5-C ) :   1.3781 B(  4-C , 12-H ) :   0.9841 B(  5-C , 13-H ) :   0.9806
B(  6-C ,  7-H ) :   0.9331 B(  6-C ,  8-H ) :   0.9416 B(  6-C ,  9-H ) :   0.9350
B( 14-N , 15-O ) :   1.5424 B( 14-N , 16-O ) :   1.5099 B( 15-O , 16-O ) :   0.2767

Dispersion correction           -0.029147635
FINAL SINGLE POINT ENERGY      -475.479719566086

DIPOLE MOMENT
-------------
                                X             Y             Z
Electronic contribution:     -1.54093       1.22841      -6.65202
Nuclear contribution   :      2.13135      -2.21480       7.79650
                        -----------------------------------------
Total Dipole Moment    :      0.59042      -0.98639       1.14449
                        -----------------------------------------
Magnitude (a.u.)       :      1.62216
Magnitude (Debye)      :      4.12321

Dispersion correction in the Hessian             ...

VIBRATIONAL FREQUENCIES
-----------------------

Scaling factor for frequencies =  1.000000000  (already applied!)

   0:         0.00 cm**-1
   1:         0.00 cm**-1
   2:         0.00 cm**-1
   3:         0.00 cm**-1
   4:         0.00 cm**-1
   5:         0.00 cm**-1
   6:        46.25 cm**-1
   7:       137.45 cm**-1
   8:       223.65 cm**-1
   9:       243.58 cm**-1
  10:       270.11 cm**-1
  11:       366.42 cm**-1
  12:       396.33 cm**-1
  13:       442.01 cm**-1
  14:       499.70 cm**-1
  15:       546.92 cm**-1
  16:       571.95 cm**-1
  17:       684.45 cm**-1
  18:       712.31 cm**-1
  19:       750.73 cm**-1
  20:       810.19 cm**-1
  21:       813.18 cm**-1
  22:       885.19 cm**-1
  23:       894.65 cm**-1
  24:       992.09 cm**-1
  25:      1006.80 cm**-1
  26:      1029.10 cm**-1
  27:      1051.52 cm**-1
  28:      1073.20 cm**-1
  29:      1101.15 cm**-1
  30:      1168.96 cm**-1
  31:      1173.43 cm**-1
  32:      1225.14 cm**-1
  33:      1291.84 cm**-1
  34:      1368.33 cm**-1
  35:      1400.69 cm**-1
  36:      1419.59 cm**-1
  37:      1443.77 cm**-1
  38:      1452.76 cm**-1
  39:      1484.35 cm**-1
  40:      1514.18 cm**-1
  41:      1628.16 cm**-1
  42:      1653.28 cm**-1
  43:      1690.58 cm**-1
  44:      3047.51 cm**-1
  45:      3129.47 cm**-1
  46:      3136.77 cm**-1
  47:      3178.78 cm**-1
  48:      3191.31 cm**-1
  49:      3203.03 cm**-1
  50:      3233.28 cm**-1

IR SPECTRUM
-----------

 Mode    freq (cm**-1)   T**2         TX         TY         TZ
-------------------------------------------------------------------
   6:        46.25    0.101349  (  0.114132  -0.192933   0.226053)
   7:       137.45    1.452058  (  1.065461   0.441776  -0.348834)
   8:       223.65    0.765060  (  0.758378   0.383022   0.207887)
   9:       243.58    0.178334  (  0.281336  -0.183789   0.255746)
  10:       270.11    2.516301  ( -0.496011   0.800044   1.276794)
  11:       366.42    1.428913  ( -0.341204   0.732530  -0.880848)
  12:       396.33    0.454934  (  0.297750  -0.567736  -0.209653)
  13:       442.01    0.356586  (  0.333256   0.485873  -0.097232)
  14:       499.70    4.278941  ( -1.842767  -0.634023   0.693660)
  15:       546.92    0.259975  ( -0.273479  -0.338091  -0.266230)
  16:       571.95    0.442208  ( -0.263961   0.601370  -0.104341)
  17:       684.45    7.205334  (  1.349971  -1.554737   1.722123)
  18:       712.31    3.453020  ( -1.212850  -1.041589   0.947158)
  19:       750.73   48.609556  ( -6.539720  -2.080926   1.229377)
  20:       810.19    6.391015  ( -1.889196   0.404202  -1.630514)
  21:       813.18    3.249793  (  1.374989   1.103575  -0.375923)
  22:       885.19   35.995781  (  2.199254  -3.882911   4.010245)
  23:       894.65    0.678500  (  0.572865  -0.409450   0.427407)
  24:       992.09    0.818665  (  0.747145  -0.491561   0.137138)
  25:      1006.80    0.663829  ( -0.007704  -0.268554   0.769187)
  26:      1029.10    0.409653  (  0.453796  -0.378808   0.245411)
  27:      1051.52    4.442754  (  1.856351   0.945028   0.321928)
  28:      1073.20    4.353841  ( -0.668260   1.936265   0.397679)
  29:      1101.15   13.756794  ( -1.080047   3.374778  -1.095978)
  30:      1168.96    4.464994  (  0.599468  -0.247771   2.011030)
  31:      1173.43    5.606125  (  0.603024  -0.539612   2.225153)
  32:      1225.14    7.895785  (  0.978818  -1.786326   1.935650)
  33:      1291.84    1.587598  (  0.580470  -1.055289  -0.370159)
  34:      1368.33   14.043322  (  0.091889   1.548327   3.411387)
  35:      1400.69   11.030670  (  0.798320  -2.763777   1.659786)
  36:      1419.59  225.478885  ( -5.690968  10.036363  -9.610577)
  37:      1443.77   21.143243  (  2.395638   0.021438   3.924755)
  38:      1452.76   10.414964  ( -1.194653  -1.144325   2.770973)
  39:      1484.35   15.528704  (  0.852477  -1.861754   3.366877)
  40:      1514.18   14.156482  ( -1.717579   3.336898   0.267423)
  41:      1628.16   22.719482  (  0.312798   4.413828   1.771936)
  42:      1653.28   70.072073  (  2.717273   4.388140   6.590351)
  43:      1690.58  162.445799  (  2.035035   9.481962   8.270238)
  44:      3047.51   11.676702  ( -0.738412   1.840843   2.782579)
  45:      3129.47    3.588715  ( -1.546854  -0.107319   1.088320)
  46:      3136.77   12.784995  ( -0.921791  -0.048021  -3.454416)
  47:      3178.78    1.951158  (  0.302479  -0.974847  -0.953592)
  48:      3191.31    8.642614  (  0.254579   0.499587   2.885865)
  49:      3203.03    7.731865  (  1.059602  -2.492965   0.627881)
  50:      3233.28    2.846455  (  0.644940  -0.520188   1.469664)

--------------------------
THERMOCHEMISTRY AT 298.15K
--------------------------

Temperature         ... 298.15 K
Pressure            ... 1.00 atm
Total Mass          ... 137.14 AMU

Throughout the following assumptions are being made:
  (1) The electronic state is orbitally nondegenerate
  (2) There are no thermally accessible electronically excited states
  (3) Hindered rotations indicated by low frequency modes are not
      treated as such but are treated as vibrations and this may
      cause some error
  (4) All equations used are the standard statistical mechanics
      equations for an ideal gas
  (5) All vibrations are strictly harmonic

freq.      46.25  E(vib)   ...       0.53
freq.     137.45  E(vib)   ...       0.42
freq.     223.65  E(vib)   ...       0.33
freq.     243.58  E(vib)   ...       0.31
freq.     270.11  E(vib)   ...       0.29
freq.     366.42  E(vib)   ...       0.22
freq.     396.33  E(vib)   ...       0.20
freq.     442.01  E(vib)   ...       0.17
freq.     499.70  E(vib)   ...       0.14
freq.     546.92  E(vib)   ...       0.12
freq.     571.95  E(vib)   ...       0.11
freq.     684.45  E(vib)   ...       0.07
freq.     712.31  E(vib)   ...       0.07
freq.     750.73  E(vib)   ...       0.06
freq.     810.19  E(vib)   ...       0.05
freq.     813.18  E(vib)   ...       0.05
freq.     885.19  E(vib)   ...       0.04
freq.     894.65  E(vib)   ...       0.03
freq.     992.09  E(vib)   ...       0.02
freq.    1006.80  E(vib)   ...       0.02
freq.    1029.10  E(vib)   ...       0.02
freq.    1051.52  E(vib)   ...       0.02
freq.    1073.20  E(vib)   ...       0.02
freq.    1101.15  E(vib)   ...       0.02
freq.    1168.96  E(vib)   ...       0.01
freq.    1173.43  E(vib)   ...       0.01
freq.    1225.14  E(vib)   ...       0.01
freq.    1291.84  E(vib)   ...       0.01
freq.    1368.33  E(vib)   ...       0.01
freq.    1400.69  E(vib)   ...       0.00
freq.    1419.59  E(vib)   ...       0.00
freq.    1443.77  E(vib)   ...       0.00
freq.    1452.76  E(vib)   ...       0.00
freq.    1484.35  E(vib)   ...       0.00
freq.    1514.18  E(vib)   ...       0.00
freq.    1628.16  E(vib)   ...       0.00
freq.    1653.28  E(vib)   ...       0.00
freq.    1690.58  E(vib)   ...       0.00
freq.    3047.51  E(vib)   ...       0.00
freq.    3129.47  E(vib)   ...       0.00
freq.    3136.77  E(vib)   ...       0.00
freq.    3178.78  E(vib)   ...       0.00
freq.    3191.31  E(vib)   ...       0.00
freq.    3203.03  E(vib)   ...       0.00
freq.    3233.28  E(vib)   ...       0.00

------------
INNER ENERGY
------------

The inner energy is: U= E(el) + E(ZPE) + E(vib) + E(rot) + E(trans)
    E(el)   - is the total energy from the electronic structure calculation
              = E(kin-el) + E(nuc-el) + E(el-el) + E(nuc-nuc)
    E(ZPE)  - the the zero temperature vibrational energy from the frequency calculation
    E(vib)  - the the finite temperature correction to E(ZPE) due to population
              of excited vibrational states
    E(rot)  - is the rotational thermal energy
    E(trans)- is the translational thermal energy

Summary of contributions to the inner energy U:
Electronic energy                ...   -475.47971957 Eh
Zero point energy                ...      0.13118634 Eh      82.32 kcal/mol
Thermal vibrational correction   ...      0.00539605 Eh       3.39 kcal/mol
Thermal rotational correction    ...      0.00141627 Eh       0.89 kcal/mol
Thermal translational correction ...      0.00141627 Eh       0.89 kcal/mol
-----------------------------------------------------------------------
Total thermal energy                   -475.34030463 Eh

Summary of corrections to the electronic energy:
(perhaps to be used in another calculation)
Total thermal correction                  0.00822860 Eh       5.16 kcal/mol
Non-thermal (ZPE) correction              0.13118634 Eh      82.32 kcal/mol
-----------------------------------------------------------------------
Total correction                          0.13941494 Eh      87.48 kcal/mol

--------
ENTHALPY
--------

The enthalpy is H = U + kB*T
                kB is Boltzmann's constant
Total free energy                 ...   -475.34030463 Eh
Thermal Enthalpy correction       ...      0.00094421 Eh       0.59 kcal/mol
-----------------------------------------------------------------------
Total Enthalpy                    ...   -475.33936042 Eh

Note: Only C1 symmetry has been detected, increase convergence thresholds
      if your molecule has a higher symmetry. Symmetry factor of 1.0 is
      used for the rotational entropy correction.

Note: Rotational entropy computed according to Herzberg
Infrared and Raman Spectra, Chapter V,1, Van Nostrand Reinhold, 1945
Point Group:  C1, Symmetry Number:   1
Rotational constants in cm-1:     0.075120     0.041909     0.027341

Vibrational entropy computed according to the QRRHO of S. Grimme
Chem.Eur.J. 2012 18 9955

-------
ENTROPY
-------

The entropy contributions are T*S = T*(S(el)+S(vib)+S(rot)+S(trans))
     S(el)   - electronic entropy
     S(vib)  - vibrational entropy
     S(rot)  - rotational entropy
     S(trans)- translational entropy
The entropies will be listed as mutliplied by the temperature to get
units of energy

Electronic entropy                ...      0.00000000 Eh      0.00 kcal/mol
Vibrational entropy               ...      0.00888506 Eh      5.58 kcal/mol
Rotational entropy                ...      0.01392971 Eh      8.74 kcal/mol
Translational entropy             ...      0.01931853 Eh     12.12 kcal/mol
-----------------------------------------------------------------------
Final entropy term                ...      0.04213330 Eh     26.44 kcal/mol

In case the symmetry of your molecule has not been determined correctly
or in case you have a reason to use a different symmetry number we print
out the resulting rotational entropy values for sn=1,12 :
 --------------------------------------------------------
|  sn= 1 | S(rot)=       0.01392971 Eh      8.74 kcal/mol|
|  sn= 2 | S(rot)=       0.01327525 Eh      8.33 kcal/mol|
|  sn= 3 | S(rot)=       0.01289242 Eh      8.09 kcal/mol|
|  sn= 4 | S(rot)=       0.01262080 Eh      7.92 kcal/mol|
|  sn= 5 | S(rot)=       0.01241011 Eh      7.79 kcal/mol|
|  sn= 6 | S(rot)=       0.01223797 Eh      7.68 kcal/mol|
|  sn= 7 | S(rot)=       0.01209242 Eh      7.59 kcal/mol|
|  sn= 8 | S(rot)=       0.01196634 Eh      7.51 kcal/mol|
|  sn= 9 | S(rot)=       0.01185513 Eh      7.44 kcal/mol|
|  sn=10 | S(rot)=       0.01175565 Eh      7.38 kcal/mol|
|  sn=11 | S(rot)=       0.01166566 Eh      7.32 kcal/mol|
|  sn=12 | S(rot)=       0.01158351 Eh      7.27 kcal/mol|
 --------------------------------------------------------

-------------------
GIBBS FREE ENERGY
-------------------

                             ****ORCA TERMINATED NORMALLY****
TOTAL RUN TIME: 0 days 2 hours 33 minutes 48 seconds 211 msec
