                         Program Version 5.0.4 -  RELEASE  -
|  1> !B3LYP DEF2-TZVP OPT FREQ
|  2>
|  3> * xyz 0 1
|  4>    C       -4.12724        1.59809        0.00000
|  5>    C       -5.23614        0.75309        0.00000
|  6>    C       -5.05879       -0.62975        0.00000
|  7>    C       -3.77255       -1.16759        0.00000
|  8>    C       -2.66365       -0.32259        0.00000
|  9>    C       -2.84099        1.06025        0.00000
| 10>    H       -4.26555        2.67655        0.00000
| 11>    H       -1.97617        1.71926        0.00000
| 12>    H       -1.66052       -0.74204        0.00000
| 13>    H       -3.63424       -2.24605        0.00000
| 14>    H       -5.92362       -1.28876        0.00000
| 15>    H       -6.23927        1.17254        0.00000
| 16> **                         ****END OF INPUT****
 Total Charge           Charge          ....    0
 Multiplicity           Mult            ....    1
 Number of Electrons    NEL             ....   42
FINAL SINGLE POINT ENERGY      -232.183230964430
FINAL SINGLE POINT ENERGY      -232.183340039652
                    ***********************HURRAY********************

CARTESIAN COORDINATES (ANGSTROEM)
---------------------------------
  C     -4.126959    1.595428   -0.000000
  C     -5.233630    0.752050   -0.000000
  C     -5.056543   -0.628068    0.000000
  C     -3.772830   -1.164929   -0.000000
  C     -2.666159   -0.321550   -0.000000
  C     -2.843244    1.058567    0.000000
  H     -4.264737    2.669765    0.000000
  H     -1.981684    1.714972    0.000000
  H     -1.666886   -0.739412   -0.000000
  H     -3.635051   -2.239266    0.000000
  H     -5.918106   -1.284470    0.000000
  H     -6.232903    1.169913   -0.000000

 Multiplicity           Mult            ....    1
 Number of Electrons    NEL             ....   42
 Basis Dimension        Dim             ....  222

ORBITAL ENERGIES
----------------

  NO   OCC          E(Eh)            E(eV)
   0   2.0000     -10.173491      -276.8348
   1   2.0000     -10.173257      -276.8284
   2   2.0000     -10.173251      -276.8282
   3   2.0000     -10.172675      -276.8126
   4   2.0000     -10.172669      -276.8124
   5   2.0000     -10.172394      -276.8049
   6   2.0000      -0.854823       -23.2609
   7   2.0000      -0.746078       -20.3018
   8   2.0000      -0.746052       -20.3011
   9   2.0000      -0.602928       -16.4065
  10   2.0000      -0.602916       -16.4062
  11   2.0000      -0.525143       -14.2899
  12   2.0000      -0.460986       -12.5441
  13   2.0000      -0.448150       -12.1948
  14   2.0000      -0.422582       -11.4990
  15   2.0000      -0.422544       -11.4980
  16   2.0000      -0.369790       -10.0625
  17   2.0000      -0.345341        -9.3972
  18   2.0000      -0.345314        -9.3965
  19   2.0000      -0.256024        -6.9668
  20   2.0000      -0.256004        -6.9662
  21   0.0000      -0.011282        -0.3070
  22   0.0000      -0.011268        -0.3066
  23   0.0000       0.047616         1.2957
  24   0.0000       0.079382         2.1601
  25   0.0000       0.079394         2.1604

MULLIKEN ATOMIC CHARGES
-----------------------
   0 C :   -0.106865
   1 C :   -0.106990
   2 C :   -0.106787
   3 C :   -0.106926
   4 C :   -0.106940
   5 C :   -0.106850
   6 H :    0.106843
   7 H :    0.106789
   8 H :    0.107077
   9 H :    0.106822
  10 H :    0.106770
  11 H :    0.107058
Sum of atomic charges:    0.0000000

LOEWDIN ATOMIC CHARGES
----------------------
   0 C :   -0.141129
   1 C :   -0.141175
   2 C :   -0.141116
   3 C :   -0.141129
   4 C :   -0.141176
   5 C :   -0.141117
   6 H :    0.141138
   7 H :    0.141131
   8 H :    0.141152
   9 H :    0.141138
  10 H :    0.141131
  11 H :    0.141152

  Mayer bond orders larger than 0.100000
B(  0-C ,  1-C ) :   1.4148 B(  0-C ,  5-C ) :   1.4144 B(  0-C ,  6-H ) :   0.9665
B(  1-C ,  2-C ) :   1.4145 B(  1-C , 11-H ) :   0.9664 B(  2-C ,  3-C ) :   1.4143
B(  2-C , 10-H ) :   0.9667 B(  3-C ,  4-C ) :   1.4149 B(  3-C ,  9-H ) :   0.9666
B(  4-C ,  5-C ) :   1.4146 B(  4-C ,  8-H ) :   0.9664 B(  5-C ,  7-H ) :   0.9666

FINAL SINGLE POINT ENERGY      -232.183341133332

DIPOLE MOMENT
-------------
                                X             Y             Z
Electronic contribution:     -0.00000      -0.00000      -0.00000
Nuclear contribution   :     -0.00000       0.00000       0.00000
                        -----------------------------------------
Total Dipole Moment    :     -0.00000      -0.00000       0.00000
                        -----------------------------------------
Magnitude (a.u.)       :      0.00000
Magnitude (Debye)      :      0.00000

VIBRATIONAL FREQUENCIES
-----------------------

Scaling factor for frequencies =  1.000000000  (already applied!)

   0:         0.00 cm**-1
   1:         0.00 cm**-1
   2:         0.00 cm**-1
   3:         0.00 cm**-1
   4:         0.00 cm**-1
   5:         0.00 cm**-1
   6:       412.00 cm**-1
   7:       412.22 cm**-1
   8:       623.62 cm**-1
   9:       623.66 cm**-1
  10:       687.59 cm**-1
  11:       715.07 cm**-1
  12:       862.25 cm**-1
  13:       862.29 cm**-1
  14:       962.99 cm**-1
  15:       963.11 cm**-1
  16:       991.31 cm**-1
  17:      1014.03 cm**-1
  18:      1029.80 cm**-1
  19:      1060.52 cm**-1
  20:      1060.62 cm**-1
  21:      1175.96 cm**-1
  22:      1199.08 cm**-1
  23:      1199.14 cm**-1
  24:      1334.13 cm**-1
  25:      1388.26 cm**-1
  26:      1516.87 cm**-1
  27:      1516.94 cm**-1
  28:      1634.89 cm**-1
  29:      1634.96 cm**-1
  30:      3158.22 cm**-1
  31:      3167.42 cm**-1
  32:      3167.55 cm**-1
  33:      3182.74 cm**-1
  34:      3182.86 cm**-1
  35:      3192.63 cm**-1

IR SPECTRUM
-----------

 Mode   freq       eps      Int      T**2         TX        TY        TZ
       cm**-1   L/(mol*cm) km/mol    a.u.
----------------------------------------------------------------------------
  6:    412.00   0.000000    0.00  0.000000  (-0.000001  0.000001  0.000112)
  7:    412.22   0.000000    0.00  0.000000  ( 0.000001  0.000001  0.000041)
  8:    623.62   0.000000    0.00  0.000000  (-0.000000  0.000000 -0.000000)
  9:    623.66   0.000000    0.00  0.000000  ( 0.000000 -0.000000  0.000000)
 10:    687.59   0.022820  115.32  0.010357  ( 0.000001 -0.000001 -0.101769)
 11:    715.07   0.000000    0.00  0.000000  ( 0.000001 -0.000008  0.000002)
 12:    862.25   0.000000    0.00  0.000000  (-0.000000  0.000002 -0.000000)
 13:    862.29   0.000000    0.00  0.000000  ( 0.000003 -0.000001  0.000001)
 14:    962.99   0.000000    0.00  0.000000  (-0.000000  0.000001  0.000029)
 15:    963.11   0.000000    0.00  0.000000  (-0.000000  0.000000  0.000051)
 16:    991.31   0.000000    0.00  0.000000  (-0.000000  0.000003 -0.000000)
 17:   1014.03   0.000000    0.00  0.000000  (-0.000000 -0.000000  0.000000)
 18:   1029.80   0.000000    0.00  0.000000  (-0.000009  0.000007  0.000000)
 19:   1060.52   0.000994    5.02  0.000293  (-0.015215 -0.007812 -0.000000)
 20:   1060.62   0.000996    5.03  0.000293  (-0.007812  0.015231  0.000000)
 21:   1175.96   0.000000    0.00  0.000000  ( 0.000010 -0.000062 -0.000000)
 22:   1199.08   0.000000    0.00  0.000000  ( 0.000000  0.000000 -0.000000)
 23:   1199.14   0.000000    0.00  0.000000  ( 0.000000  0.000000 -0.000000)
 24:   1334.13   0.000000    0.00  0.000000  ( 0.000024  0.000062  0.000000)
 25:   1388.26   0.000000    0.00  0.000000  ( 0.000000 -0.000000  0.000000)
 26:   1516.87   0.001496    7.56  0.000308  (-0.016200 -0.006732 -0.000000)
 27:   1516.94   0.001502    7.59  0.000309  ( 0.006770 -0.016222  0.000000)
 28:   1634.89   0.000000    0.00  0.000000  ( 0.000000  0.000000 -0.000000)
 29:   1634.96   0.000000    0.00  0.000000  (-0.000000  0.000000  0.000000)
 30:   3158.22   0.000000    0.00  0.000000  (-0.000089 -0.000045  0.000000)
 31:   3167.42   0.000000    0.00  0.000000  (-0.000001  0.000001  0.000000)
 32:   3167.55   0.000000    0.00  0.000000  ( 0.000001  0.000001  0.000000)
 33:   3182.74   0.007065   35.70  0.000693  (-0.016694  0.020348 -0.000000)
 34:   3182.86   0.007075   35.75  0.000694  ( 0.020361  0.016705 -0.000000)
 35:   3192.63   0.000000    0.00  0.000000  (-0.000001 -0.000000  0.000000)

--------------------------
THERMOCHEMISTRY AT 298.15K
--------------------------

Temperature         ... 298.15 K
Pressure            ... 1.00 atm
Total Mass          ... 78.11 AMU

Throughout the following assumptions are being made:
  (1) The electronic state is orbitally nondegenerate
  (2) There are no thermally accessible electronically excited states
  (3) Hindered rotations indicated by low frequency modes are not
      treated as such but are treated as vibrations and this may
      cause some error
  (4) All equations used are the standard statistical mechanics
      equations for an ideal gas
  (5) All vibrations are strictly harmonic

freq.     412.00  E(vib)   ...       0.19
freq.     412.22  E(vib)   ...       0.19
freq.     623.62  E(vib)   ...       0.09
freq.     623.66  E(vib)   ...       0.09
freq.     687.59  E(vib)   ...       0.07
freq.     715.07  E(vib)   ...       0.07
freq.     862.25  E(vib)   ...       0.04
freq.     862.29  E(vib)   ...       0.04
freq.     962.99  E(vib)   ...       0.03
freq.     963.11  E(vib)   ...       0.03
freq.     991.31  E(vib)   ...       0.02
freq.    1014.03  E(vib)   ...       0.02
freq.    1029.80  E(vib)   ...       0.02
freq.    1060.52  E(vib)   ...       0.02
freq.    1060.62  E(vib)   ...       0.02
freq.    1175.96  E(vib)   ...       0.01
freq.    1199.08  E(vib)   ...       0.01
freq.    1199.14  E(vib)   ...       0.01
freq.    1334.13  E(vib)   ...       0.01
freq.    1388.26  E(vib)   ...       0.00
freq.    1516.87  E(vib)   ...       0.00
freq.    1516.94  E(vib)   ...       0.00
freq.    1634.89  E(vib)   ...       0.00
freq.    1634.96  E(vib)   ...       0.00
freq.    3158.22  E(vib)   ...       0.00
freq.    3167.42  E(vib)   ...       0.00
freq.    3167.55  E(vib)   ...       0.00
freq.    3182.74  E(vib)   ...       0.00
freq.    3182.86  E(vib)   ...       0.00
freq.    3192.63  E(vib)   ...       0.00

------------
INNER ENERGY
------------

The inner energy is: U= E(el) + E(ZPE) + E(vib) + E(rot) + E(trans)
    E(el)   - is the total energy from the electronic structure calculation
              = E(kin-el) + E(nuc-el) + E(el-el) + E(nuc-nuc)
    E(ZPE)  - the the zero temperature vibrational energy from the frequency calculation
    E(vib)  - the the finite temperature correction to E(ZPE) due to population
              of excited vibrational states
    E(rot)  - is the rotational thermal energy
    E(trans)- is the translational thermal energy

Summary of contributions to the inner energy U:
Electronic energy                ...   -232.18334113 Eh
Zero point energy                ...      0.10008616 Eh      62.80 kcal/mol
Thermal vibrational correction   ...      0.00157278 Eh       0.99 kcal/mol
Thermal rotational correction    ...      0.00141627 Eh       0.89 kcal/mol
Thermal translational correction ...      0.00141627 Eh       0.89 kcal/mol
-----------------------------------------------------------------------
Total thermal energy                   -232.07884965 Eh

Summary of corrections to the electronic energy:
(perhaps to be used in another calculation)
Total thermal correction                  0.00440532 Eh       2.76 kcal/mol
Non-thermal (ZPE) correction              0.10008616 Eh      62.80 kcal/mol
-----------------------------------------------------------------------
Total correction                          0.10449148 Eh      65.57 kcal/mol

--------
ENTHALPY
--------

The enthalpy is H = U + kB*T
                kB is Boltzmann's constant
Total free energy                 ...   -232.07884965 Eh
Thermal Enthalpy correction       ...      0.00094421 Eh       0.59 kcal/mol
-----------------------------------------------------------------------
Total Enthalpy                    ...   -232.07790545 Eh

Note: Rotational entropy computed according to Herzberg
Infrared and Raman Spectra, Chapter V,1, Van Nostrand Reinhold, 1945
Point Group:  C2h, Symmetry Number:   2
Rotational constants in cm-1:     0.190972     0.190941     0.095478

Vibrational entropy computed according to the QRRHO of S. Grimme
Chem.Eur.J. 2012 18 9955

-------
ENTROPY
-------

The entropy contributions are T*S = T*(S(el)+S(vib)+S(rot)+S(trans))
     S(el)   - electronic entropy
     S(vib)  - vibrational entropy
     S(rot)  - rotational entropy
     S(trans)- translational entropy
The entropies will be listed as multiplied by the temperature to get
units of energy

Electronic entropy                ...      0.00000000 Eh      0.00 kcal/mol
Vibrational entropy               ...      0.00210866 Eh      1.32 kcal/mol
Rotational entropy                ...      0.01152852 Eh      7.23 kcal/mol
Translational entropy             ...      0.01852142 Eh     11.62 kcal/mol
-----------------------------------------------------------------------
Final entropy term                ...      0.03215859 Eh     20.18 kcal/mol

In case the symmetry of your molecule has not been determined correctly
or in case you have a reason to use a different symmetry number we print
out the resulting rotational entropy values for sn=1,12 :
 --------------------------------------------------------
|  sn= 1 | S(rot)=       0.01218297 Eh      7.64 kcal/mol|
|  sn= 2 | S(rot)=       0.01152852 Eh      7.23 kcal/mol|
|  sn= 3 | S(rot)=       0.01114568 Eh      6.99 kcal/mol|
|  sn= 4 | S(rot)=       0.01087406 Eh      6.82 kcal/mol|
|  sn= 5 | S(rot)=       0.01066337 Eh      6.69 kcal/mol|
|  sn= 6 | S(rot)=       0.01049123 Eh      6.58 kcal/mol|
|  sn= 7 | S(rot)=       0.01034568 Eh      6.49 kcal/mol|
|  sn= 8 | S(rot)=       0.01021960 Eh      6.41 kcal/mol|
|  sn= 9 | S(rot)=       0.01010839 Eh      6.34 kcal/mol|
|  sn=10 | S(rot)=       0.01000891 Eh      6.28 kcal/mol|
|  sn=11 | S(rot)=       0.00991892 Eh      6.22 kcal/mol|
|  sn=12 | S(rot)=       0.00983677 Eh      6.17 kcal/mol|
 --------------------------------------------------------

-------------------
GIBBS FREE ENERGY
-------------------

The Gibbs free energy is G = H - T*S

Total enthalpy                    ...   -232.07790545 Eh
Total entropy correction          ...     -0.03215859 Eh    -20.18 kcal/mol
-----------------------------------------------------------------------
Final Gibbs free energy         ...   -232.11006404 Eh

For completeness - the Gibbs free energy minus the electronic energy
G-E(el)                           ...      0.07327710 Eh     45.98 kcal/mol

                             ****ORCA TERMINATED NORMALLY****
TOTAL RUN TIME: 0 days 1 hours 10 minutes 57 seconds 469 msec
