                         Program Version 5.0.4 -  RELEASE  -
|  1> !cam-B3LYP DEF2-SVP FREQ D4
|  2>
|  3> * xyz 1 1
|  4>   C   -2.59096763099183      1.35707632868311     -1.29637108519819
|  5>   C   -3.50747628417126      0.37240827878264     -1.80457451714020
|  6>   C   -3.45236690447404     -0.93835909424729     -1.38160475434772
|  7>   C   -2.48817531049545     -1.33980578122810     -0.43443843007945
|  8>   C   -1.57552392964272     -0.40393778752883      0.08434612922563
|  9>   C   -1.61563141305945      0.91521024662854     -0.32827199413195
| 10>   H   -4.25195182069650      0.69125864725650     -2.53800219692391
| 11>   H   -4.15949510762728     -1.66738594169357     -1.78278233677945
| 12>   H   -2.44437445211484     -2.37789999359236     -0.09889195510160
| 13>   H   -0.82178865975236     -0.69300555649948      0.81747370321744
| 14>   H   8.82976292378174     -2.55970494046663     16.90895843887601
| 15>   N   -2.66677522711290      2.61583751867298     -1.72250405352587
| 16>   H   -3.36682596193991      2.89167503631130     -2.40514066495180
| 17>   H   -1.99583134244529      3.28982669128129     -1.33755351490510
| 18>   N   -0.63051392660352      1.84453632440211      0.25570501831424
| 19>   O   -0.66519690147805      3.01805597300700     -0.11265600787859
| 20>   O   0.15310194882382      1.39786405023072      1.06215822133048
| 21> *
| 22>
| 23>                          ****END OF INPUT****

CARTESIAN COORDINATES (ANGSTROEM)
---------------------------------
  C     -2.590968    1.357076   -1.296371
  C     -3.507476    0.372408   -1.804575
  C     -3.452367   -0.938359   -1.381605
  C     -2.488175   -1.339806   -0.434438
  C     -1.575524   -0.403938    0.084346
  C     -1.615631    0.915210   -0.328272
  H     -4.251952    0.691259   -2.538002
  H     -4.159495   -1.667386   -1.782782
  H     -2.444374   -2.377900   -0.098892
  H     -0.821789   -0.693006    0.817474
  H      8.829763   -2.559705   16.908958
  N     -2.666775    2.615838   -1.722504
  H     -3.366826    2.891675   -2.405141
  H     -1.995831    3.289827   -1.337554
  N     -0.630514    1.844536    0.255705
  O     -0.665197    3.018056   -0.112656
  O      0.153102    1.397864    1.062158

 Total Charge           Charge          ....    1
 Multiplicity           Mult            ....    1
 Number of Electrons    NEL             ....   72
 Basis Dimension        Dim             ....  175

ORBITAL ENERGIES
----------------

  NO   OCC          E(Eh)            E(eV)
   0   2.0000     -19.262054      -524.1471
   1   2.0000     -19.261814      -524.1406
   2   2.0000     -14.667228      -399.1156
   3   2.0000     -14.452457      -393.2713
   4   2.0000     -10.367890      -282.1246
   5   2.0000     -10.338124      -281.3147
   6   2.0000     -10.310919      -280.5744
   7   2.0000     -10.310636      -280.5667
   8   2.0000     -10.301423      -280.3160
   9   2.0000     -10.294294      -280.1220
  10   2.0000      -1.334198       -36.3054
  11   2.0000      -1.157769       -31.5045
  12   2.0000      -1.050317       -28.5806
  13   2.0000      -0.963737       -26.2246
  14   2.0000      -0.902644       -24.5622
  15   2.0000      -0.841687       -22.9035
  16   2.0000      -0.788347       -21.4520
  17   2.0000      -0.727940       -19.8083
  18   2.0000      -0.705274       -19.1915
  19   2.0000      -0.656940       -17.8763
  20   2.0000      -0.642726       -17.4895
  21   2.0000      -0.627655       -17.0794
  22   2.0000      -0.621712       -16.9176
  23   2.0000      -0.609189       -16.5769
  24   2.0000      -0.569039       -15.4843
  25   2.0000      -0.538489       -14.6530
  26   2.0000      -0.536006       -14.5855
  27   2.0000      -0.504771       -13.7355
  28   2.0000      -0.480574       -13.0771
  29   2.0000      -0.459320       -12.4987
  30   2.0000      -0.428098       -11.6491
  31   2.0000      -0.400962       -10.9107
  32   2.0000      -0.400694       -10.9034
  33   2.0000      -0.390809       -10.6345
  34   2.0000      -0.362355        -9.8602
  35   2.0000      -0.295074        -8.0294
  36   0.0000      -0.498311       -13.5597
  37   0.0000      -0.060550        -1.6476
  38   0.0000       0.012399         0.3374
  39   0.0000       0.030919         0.8414
  40   0.0000       0.069650         1.8953

MULLIKEN ATOMIC CHARGES
-----------------------
   0 C :   -0.028284
   1 C :   -0.059898
   2 C :    0.054461
   3 C :   -0.010198
   4 C :   -0.040104
   5 C :    0.119614
   6 H :   -0.028495
   7 H :    0.003517
   8 H :   -0.005546
   9 H :    0.008386
  10 H :    1.000000
  11 N :   -0.008858
  12 H :    0.121466
  13 H :    0.146963
  14 N :    0.253555
  15 O :   -0.288994
  16 O :   -0.237585
Sum of atomic charges:    1.0000000

LOEWDIN ATOMIC CHARGES
----------------------
   0 C :    0.055787
   1 C :   -0.075169
   2 C :    0.009536
   3 C :   -0.070093
   4 C :    0.005414
   5 C :   -0.084944
   6 H :    0.028554
   7 H :    0.036916
   8 H :    0.029432
   9 H :    0.041934
  10 H :    1.000000
  11 N :    0.014159
  12 H :    0.083673
  13 H :    0.069578
  14 N :    0.291028
  15 O :   -0.232966
  16 O :   -0.202839

  Mayer bond orders larger than 0.100000
B(  0-C ,  1-C ) :   1.2667 B(  0-C ,  5-C ) :   1.2512 B(  0-C , 11-N ) :   1.4140
B(  1-C ,  2-C ) :   1.4481 B(  1-C ,  6-H ) :   0.9880 B(  2-C ,  3-C ) :   1.3075
B(  2-C ,  7-H ) :   0.9863 B(  3-C ,  4-C ) :   1.3936 B(  3-C ,  8-H ) :   0.9870
B(  4-C ,  5-C ) :   1.3724 B(  4-C ,  9-H ) :   0.9807 B(  5-C , 14-N ) :   0.9017
B( 11-N , 12-H ) :   0.9268 B( 11-N , 13-H ) :   0.8912 B( 14-N , 15-O ) :   1.4606
B( 14-N , 16-O ) :   1.5853 B( 15-O , 16-O ) :   0.2419

Dispersion correction           -0.014063127
FINAL SINGLE POINT ENERGY      -491.538705325495

DIPOLE MOMENT
-------------
                                X             Y             Z
Electronic contribution:     14.75883      -0.29877      19.93737
Nuclear contribution   :      3.93475      -6.58991      11.71913
                        -----------------------------------------
Total Dipole Moment    :     18.69359      -6.88868      31.65650
                        -----------------------------------------
Magnitude (a.u.)       :     37.40372
Magnitude (Debye)      :     95.07270

Dispersion correction in the Hessian             ... Starting D4

VIBRATIONAL FREQUENCIES
-----------------------

Scaling factor for frequencies =  1.000000000  (already applied!)

   0:         0.00 cm**-1
   1:         0.00 cm**-1
   2:         0.00 cm**-1
   3:         0.00 cm**-1
   4:         0.00 cm**-1
   5:         0.00 cm**-1
   6:       -10.17 cm**-1 ***imaginary mode***
   7:        21.05 cm**-1
   8:        35.44 cm**-1
   9:       105.47 cm**-1
  10:       159.21 cm**-1
  11:       253.01 cm**-1
  12:       313.40 cm**-1
  13:       391.87 cm**-1
  14:       415.78 cm**-1
  15:       443.47 cm**-1
  16:       481.15 cm**-1
  17:       557.52 cm**-1
  18:       568.52 cm**-1
  19:       573.73 cm**-1
  20:       687.09 cm**-1
  21:       719.90 cm**-1
  22:       744.84 cm**-1
  23:       781.58 cm**-1
  24:       801.71 cm**-1
  25:       847.97 cm**-1
  26:       883.46 cm**-1
  27:       898.05 cm**-1
  28:      1008.58 cm**-1
  29:      1032.57 cm**-1
  30:      1040.74 cm**-1
  31:      1058.21 cm**-1
  32:      1101.84 cm**-1
  33:      1162.12 cm**-1
  34:      1173.56 cm**-1
  35:      1296.58 cm**-1
  36:      1323.50 cm**-1
  37:      1385.99 cm**-1
  38:      1421.90 cm**-1
  39:      1523.33 cm**-1
  40:      1532.67 cm**-1
  41:      1590.75 cm**-1
  42:      1630.32 cm**-1
  43:      1703.26 cm**-1
  44:      1743.64 cm**-1
  45:      3198.31 cm**-1
  46:      3210.94 cm**-1
  47:      3224.79 cm**-1
  48:      3242.84 cm**-1
  49:      3438.43 cm**-1
  50:      3639.00 cm**-1

IR SPECTRUM
-----------

 Mode   freq       eps      Int      T**2         TX        TY        TZ
       cm**-1   L/(mol*cm) km/mol    a.u.
----------------------------------------------------------------------------
  7:     21.05   0.087723  443.31  1.300231  (-0.295515  1.002717  0.455478)
  8:     35.44   0.102006  515.49  0.898275  (-0.707732 -0.559997  0.289471)
  9:    105.47   0.001577    7.97  0.004665  ( 0.037147 -0.047747 -0.031713)
 10:    159.21   0.001224    6.19  0.002400  (-0.041105  0.009871  0.024751)
 11:    253.01   0.000330    1.67  0.000407  ( 0.015113 -0.001378 -0.013274)
 12:    313.40   0.000489    2.47  0.000487  (-0.005602  0.018848 -0.010037)
 13:    391.87   0.000230    1.16  0.000183  ( 0.009954 -0.002053  0.008942)
 14:    415.78   0.000888    4.49  0.000666  (-0.016959  0.009707 -0.016863)
 15:    443.47   0.005658   28.59  0.003981  (-0.040653  0.014682  0.045968)
 16:    481.15   0.025364  128.18  0.016450  ( 0.082028 -0.028420 -0.094415)
 17:    557.52   0.000686    3.47  0.000384  (-0.013059 -0.012041 -0.008272)
 18:    568.52   0.003221   16.28  0.001768  ( 0.026500 -0.008755 -0.031447)
 19:    573.73   0.000358    1.81  0.000195  ( 0.008406 -0.006794  0.008820)
 20:    687.09   0.000827    4.18  0.000376  ( 0.012137  0.013473  0.006844)
 21:    719.90   0.010411   52.61  0.004513  (-0.042575  0.014111  0.050010)
 22:    744.84   0.000096    0.49  0.000040  ( 0.003887 -0.001855 -0.004661)
 23:    781.58   0.008863   44.79  0.003539  (-0.037843  0.012792  0.044080)
 24:    801.71   0.000339    1.71  0.000132  (-0.007385  0.002034  0.008567)
 25:    847.97   0.000678    3.43  0.000250  ( 0.011812  0.006413  0.008303)
 26:    883.46   0.000562    2.84  0.000198  ( 0.009105 -0.003160 -0.010274)
 27:    898.05   0.007773   39.28  0.002701  (-0.034497 -0.033066 -0.020434)
 28:   1008.58   0.000161    0.82  0.000050  (-0.004397  0.001154  0.005412)
 29:   1032.57   0.000030    0.15  0.000009  (-0.001844  0.000827  0.002232)
 30:   1040.74   0.004548   22.98  0.001364  ( 0.020305 -0.020227  0.023284)
 31:   1058.21   0.005154   26.05  0.001520  ( 0.027212  0.022019  0.017161)
 32:   1101.84   0.009937   50.22  0.002814  ( 0.040619  0.014818  0.030740)
 33:   1162.12   0.001615    8.16  0.000434  (-0.007395  0.016004 -0.011079)
 34:   1173.56   0.005041   25.47  0.001340  ( 0.024696 -0.011390  0.024511)
 35:   1296.58   0.008466   42.78  0.002038  ( 0.034564  0.003417  0.028830)
 36:   1323.50   0.026172  132.26  0.006171  (-0.060004 -0.022646 -0.045362)
 37:   1385.99   0.010215   51.62  0.002300  ( 0.026325  0.038338  0.011711)
 38:   1421.90   0.035196  177.87  0.007724  (-0.057579 -0.057549 -0.033124)
 39:   1523.33   0.023246  117.47  0.004762  (-0.052184 -0.024306 -0.038055)
 40:   1532.67   0.003755   18.98  0.000765  (-0.008675  0.022294 -0.013868)
 41:   1590.75   0.007649   38.66  0.001501  (-0.028868 -0.015885 -0.020369)
 42:   1630.32   0.047235  238.71  0.009041  ( 0.038655 -0.068753  0.053106)
 43:   1703.26   0.011942   60.35  0.002188  (-0.021096 -0.041237 -0.006510)
 44:   1743.64   0.083282  420.87  0.014905  ( 0.033601 -0.101855  0.058324)
 45:   3198.31   0.000639    3.23  0.000062  ( 0.001585 -0.006953  0.003387)
 46:   3210.94   0.001071    5.41  0.000104  (-0.006078  0.004837 -0.006615)
 47:   3224.79   0.000823    4.16  0.000080  (-0.004824 -0.007212 -0.002093)
 48:   3242.84   0.000843    4.26  0.000081  (-0.006893 -0.002611 -0.005177)
 49:   3438.43   0.028358  143.31  0.002574  ( 0.021843  0.045418  0.005813)
 50:   3639.00   0.019202   97.04  0.001647  ( 0.029422 -0.006447  0.027193)

--------------------------
THERMOCHEMISTRY AT 298.15K
--------------------------

Temperature         ... 298.15 K
Pressure            ... 1.00 atm
Total Mass          ... 139.13 AMU

Throughout the following assumptions are being made:
  (1) The electronic state is orbitally nondegenerate
  (2) There are no thermally accessible electronically excited states
  (3) Hindered rotations indicated by low frequency modes are not
      treated as such but are treated as vibrations and this may
      cause some error
  (4) All equations used are the standard statistical mechanics
      equations for an ideal gas
  (5) All vibrations are strictly harmonic

freq.      21.05  E(vib)   ...       0.56
freq.      35.44  E(vib)   ...       0.54
freq.     105.47  E(vib)   ...       0.45
freq.     159.21  E(vib)   ...       0.39
freq.     253.01  E(vib)   ...       0.30
freq.     313.40  E(vib)   ...       0.25
freq.     391.87  E(vib)   ...       0.20
freq.     415.78  E(vib)   ...       0.18
freq.     443.47  E(vib)   ...       0.17
freq.     481.15  E(vib)   ...       0.15
freq.     557.52  E(vib)   ...       0.12
freq.     568.52  E(vib)   ...       0.11
freq.     573.73  E(vib)   ...       0.11
freq.     687.09  E(vib)   ...       0.07
freq.     719.90  E(vib)   ...       0.07
freq.     744.84  E(vib)   ...       0.06
freq.     781.58  E(vib)   ...       0.05
freq.     801.71  E(vib)   ...       0.05
freq.     847.97  E(vib)   ...       0.04
freq.     883.46  E(vib)   ...       0.04
freq.     898.05  E(vib)   ...       0.03
freq.    1008.58  E(vib)   ...       0.02
freq.    1032.57  E(vib)   ...       0.02
freq.    1040.74  E(vib)   ...       0.02
freq.    1058.21  E(vib)   ...       0.02
freq.    1101.84  E(vib)   ...       0.02
freq.    1162.12  E(vib)   ...       0.01
freq.    1173.56  E(vib)   ...       0.01
freq.    1296.58  E(vib)   ...       0.01
freq.    1323.50  E(vib)   ...       0.01
freq.    1385.99  E(vib)   ...       0.00
freq.    1421.90  E(vib)   ...       0.00
freq.    1523.33  E(vib)   ...       0.00
freq.    1532.67  E(vib)   ...       0.00
freq.    1590.75  E(vib)   ...       0.00
freq.    1630.32  E(vib)   ...       0.00
freq.    1703.26  E(vib)   ...       0.00
freq.    1743.64  E(vib)   ...       0.00
freq.    3198.31  E(vib)   ...       0.00
freq.    3210.94  E(vib)   ...       0.00
freq.    3224.79  E(vib)   ...       0.00
freq.    3242.84  E(vib)   ...       0.00
freq.    3438.43  E(vib)   ...       0.00
freq.    3639.00  E(vib)   ...       0.00

------------
INNER ENERGY
------------

The inner energy is: U= E(el) + E(ZPE) + E(vib) + E(rot) + E(trans)
    E(el)   - is the total energy from the electronic structure calculation
              = E(kin-el) + E(nuc-el) + E(el-el) + E(nuc-nuc)
    E(ZPE)  - the the zero temperature vibrational energy from the frequency calculation
    E(vib)  - the the finite temperature correction to E(ZPE) due to population
              of excited vibrational states
    E(rot)  - is the rotational thermal energy
    E(trans)- is the translational thermal energy

Summary of contributions to the inner energy U:
Electronic energy                ...   -491.53870533 Eh
Zero point energy                ...      0.12158140 Eh      76.29 kcal/mol
Thermal vibrational correction   ...      0.00656320 Eh       4.12 kcal/mol
Thermal rotational correction    ...      0.00141627 Eh       0.89 kcal/mol
Thermal translational correction ...      0.00141627 Eh       0.89 kcal/mol
-----------------------------------------------------------------------
Total thermal energy                   -491.40772819 Eh

Summary of corrections to the electronic energy:
(perhaps to be used in another calculation)
Total thermal correction                  0.00939574 Eh       5.90 kcal/mol
Non-thermal (ZPE) correction              0.12158140 Eh      76.29 kcal/mol
-----------------------------------------------------------------------
Total correction                          0.13097714 Eh      82.19 kcal/mol

--------
ENTHALPY
--------

The enthalpy is H = U + kB*T
                kB is Boltzmann's constant
Total free energy                 ...   -491.40772819 Eh
Thermal Enthalpy correction       ...      0.00094421 Eh       0.59 kcal/mol
-----------------------------------------------------------------------
Total Enthalpy                    ...   -491.40678398 Eh

Note: Only C1 symmetry has been detected, increase convergence thresholds
      if your molecule has a higher symmetry. Symmetry factor of 1.0 is
      used for the rotational entropy correction.

Note: Rotational entropy computed according to Herzberg
Infrared and Raman Spectra, Chapter V,1, Van Nostrand Reinhold, 1945
Point Group:  C1, Symmetry Number:   1
Rotational constants in cm-1:     0.050365     0.023232     0.016225

Vibrational entropy computed according to the QRRHO of S. Grimme
Chem.Eur.J. 2012 18 9955

-------
ENTROPY
-------

The entropy contributions are T*S = T*(S(el)+S(vib)+S(rot)+S(trans))
     S(el)   - electronic entropy
     S(vib)  - vibrational entropy
     S(rot)  - rotational entropy
     S(trans)- translational entropy
The entropies will be listed as multiplied by the temperature to get
units of energy

Electronic entropy                ...      0.00000000 Eh      0.00 kcal/mol
Vibrational entropy               ...      0.01157256 Eh      7.26 kcal/mol
Rotational entropy                ...      0.01464333 Eh      9.19 kcal/mol
Translational entropy             ...      0.01933899 Eh     12.14 kcal/mol
-----------------------------------------------------------------------
Final entropy term                ...      0.04555488 Eh     28.59 kcal/mol

In case the symmetry of your molecule has not been determined correctly
or in case you have a reason to use a different symmetry number we print
out the resulting rotational entropy values for sn=1,12 :
 --------------------------------------------------------
|  sn= 1 | S(rot)=       0.01464333 Eh      9.19 kcal/mol|
|  sn= 2 | S(rot)=       0.01398887 Eh      8.78 kcal/mol|
|  sn= 3 | S(rot)=       0.01360604 Eh      8.54 kcal/mol|
|  sn= 4 | S(rot)=       0.01333442 Eh      8.37 kcal/mol|
|  sn= 5 | S(rot)=       0.01312373 Eh      8.24 kcal/mol|
|  sn= 6 | S(rot)=       0.01295158 Eh      8.13 kcal/mol|
|  sn= 7 | S(rot)=       0.01280604 Eh      8.04 kcal/mol|
|  sn= 8 | S(rot)=       0.01267996 Eh      7.96 kcal/mol|
|  sn= 9 | S(rot)=       0.01256875 Eh      7.89 kcal/mol|
|  sn=10 | S(rot)=       0.01246927 Eh      7.82 kcal/mol|
|  sn=11 | S(rot)=       0.01237928 Eh      7.77 kcal/mol|
|  sn=12 | S(rot)=       0.01229713 Eh      7.72 kcal/mol|
 --------------------------------------------------------

-------------------
GIBBS FREE ENERGY
-------------------

                             ****ORCA TERMINATED NORMALLY****
TOTAL RUN TIME: 0 days 0 hours 12 minutes 20 seconds 411 msec
