                         Program Version 5.0.4 -  RELEASE  -
|  1> !B3LYP DEF2-QZVPP
|  2>
|  3> %scf
|  4> convergence tight
|  5> end
|  6>
|  7> * xyz 0 1
|  8>   C   -7.64955123257574      1.05667496322029      0.00014520838104
|  9>   C   -8.79916351080206      0.24872780425274      0.00008905118997
| 10>   C   -8.67321655981621     -1.13811711906506     -0.00000919817803
| 11>   C   -7.40029987012933     -1.72545521617015     -0.00005668085097
| 12>   C   -6.25283944731800     -0.92603412378881     -0.00000445009069
| 13>   C   -6.37843668408918      0.46455608191688      0.00009149100933
| 14>   H   -9.77661143532832      0.73646330403028      0.00013423090312
| 15>   H   -9.56538097816012     -1.76944944365123     -0.00004787808665
| 16>   H   -7.30398836209473     -2.81446583393220     -0.00013419510464
| 17>   H   -5.26279373559463     -1.38857504724656     -0.00004062474458
| 18>   H   -5.48778053780068      1.10055393291687      0.00013390758895
| 19>   C   -7.78086952931509      2.53411063434570      0.00027982611682
| 20>   O   -8.83232576750578      3.13199127167985     -0.00028240644287
| 21>   H   -6.80289234947011      3.08481879149140     -0.00029828169081
| 22> **                         ****END OF INPUT****

CARTESIAN COORDINATES (ANGSTROEM)
---------------------------------
  C     -7.649551    1.056675    0.000145
  C     -8.799164    0.248728    0.000089
  C     -8.673217   -1.138117   -0.000009
  C     -7.400300   -1.725455   -0.000057
  C     -6.252839   -0.926034   -0.000004
  C     -6.378437    0.464556    0.000091
  H     -9.776611    0.736463    0.000134
  H     -9.565381   -1.769449   -0.000048
  H     -7.303988   -2.814466   -0.000134
  H     -5.262794   -1.388575   -0.000041
  H     -5.487781    1.100554    0.000134
  C     -7.780870    2.534111    0.000280
  O     -8.832326    3.131991   -0.000282
  H     -6.802892    3.084819   -0.000298

 Total Charge           Charge          ....    0
 Multiplicity           Mult            ....    1
 Number of Electrons    NEL             ....   56
 Basis Dimension        Dim             ....  636

ORBITAL ENERGIES
----------------

  NO   OCC          E(Eh)            E(eV)
   0   2.0000     -19.125828      -520.4402
   1   2.0000     -10.265518      -279.3389
   2   2.0000     -10.202897      -277.6349
   3   2.0000     -10.201637      -277.6007
   4   2.0000     -10.199268      -277.5362
   5   2.0000     -10.197973      -277.5010
   6   2.0000     -10.197014      -277.4749
   7   2.0000     -10.196422      -277.4587
   8   2.0000      -1.049927       -28.5700
   9   2.0000      -0.874206       -23.7884
  10   2.0000      -0.777248       -21.1500
  11   2.0000      -0.764235       -20.7959
  12   2.0000      -0.657666       -17.8960
  13   2.0000      -0.624167       -16.9845
  14   2.0000      -0.579099       -15.7581
  15   2.0000      -0.529268       -14.4021
  16   2.0000      -0.490378       -13.3439
  17   2.0000      -0.468978       -12.7615
  18   2.0000      -0.447265       -12.1707
  19   2.0000      -0.439120       -11.9491
  20   2.0000      -0.434814       -11.8319
  21   2.0000      -0.415506       -11.3065
  22   2.0000      -0.375396       -10.2151
  23   2.0000      -0.373936       -10.1753
  24   2.0000      -0.361031        -9.8242
  25   2.0000      -0.276299        -7.5185
  26   2.0000      -0.273131        -7.4323
  27   2.0000      -0.265784        -7.2323
  28   0.0000      -0.076187        -2.0731
  29   0.0000      -0.031926        -0.8688
  30   0.0000       0.017937         0.4881
  31   0.0000       0.018949         0.5156
  32   0.0000       0.033852         0.9211

MULLIKEN ATOMIC CHARGES
-----------------------
   0 C :    0.096652
   1 C :   -0.030581
   2 C :   -0.085355
   3 C :   -0.022291
   4 C :   -0.092395
   5 C :   -0.053906
   6 H :    0.098112
   7 H :    0.066687
   8 H :    0.065556
   9 H :    0.063281
  10 H :    0.064538
  11 C :    0.105912
  12 O :   -0.332574
  13 H :    0.056365
Sum of atomic charges:   -0.0000000

LOEWDIN ATOMIC CHARGES
----------------------
   0 C :   -0.130253
   1 C :    0.103593
   2 C :    0.072256
   3 C :    0.077930
   4 C :    0.068654
   5 C :    0.085275
   6 H :   -0.043036
   7 H :   -0.053701
   8 H :   -0.052622
   9 H :   -0.054690
  10 H :   -0.048688
  11 C :   -0.306156
  12 O :    0.350119
  13 H :   -0.068684

  Mayer bond orders larger than 0.100000
B(  0-C ,  1-C ) :   1.2065 B(  0-C ,  5-C ) :   1.2047 B(  0-C , 11-C ) :   0.9832
B(  1-C ,  2-C ) :   1.3362 B(  1-C ,  6-H ) :   0.9433 B(  2-C ,  3-C ) :   1.3019
B(  2-C ,  7-H ) :   0.9692 B(  3-C ,  4-C ) :   1.3280 B(  3-C ,  8-H ) :   0.9646
B(  4-C ,  5-C ) :   1.3429 B(  4-C ,  9-H ) :   0.9675 B(  5-C , 10-H ) :   0.9562
B( 11-C , 12-O ) :   2.0094 B( 11-C , 13-H ) :   0.9630

FINAL SINGLE POINT ENERGY      -345.523639927168

DIPOLE MOMENT
-------------
                                X             Y             Z
Electronic contribution:     -1.30970       2.77498       0.00055
Nuclear contribution   :      2.09952      -3.87654      -0.00033
                        -----------------------------------------
Total Dipole Moment    :      0.78982      -1.10156       0.00022
                        -----------------------------------------
Magnitude (a.u.)       :      1.35546
Magnitude (Debye)      :      3.44529

Rotational constants in cm-1:     0.173808     0.051962     0.040003
Rotational constants in MHz :  5210.632863  1557.792854  1199.257712

                             ****ORCA TERMINATED NORMALLY****
TOTAL RUN TIME: 0 days 1 hours 0 minutes 15 seconds 353 msec
