                         Program Version 5.0.4 -  RELEASE  -
|  1> !BP86 cc-pVDZ OPT FREQ D4 cc-pVDZ/C RIJCOSX
|  2>
|  3> %geom
|  4> convergence loose
|  5> end
|  6>
|  7> * xyz 0 1
|  8>    C       -2.35960        1.23828       -0.50808
|  9>    C       -3.67227        1.57227       -0.11970
| 10>    C       -4.63898        0.58593        0.08995
| 11>    C       -4.31545       -0.76351       -0.08429
| 12>    C       -3.02097       -1.11633       -0.46873
| 13>    C       -2.04837       -0.13296       -0.68022
| 14>    H       -3.95192        2.60880        0.02286
| 15>    H       -5.63939        0.87381        0.38800
| 16>    H       -1.07749       -0.48702       -0.97409
| 17>    H       -2.76496       -2.15987       -0.60510
| 18>    O       -5.23713       -1.72749        0.11413
| 19>    H       -6.14510       -1.52451        0.38102
| 20>    N       -1.42579        2.31530       -0.70290
| 21>    C       -0.11359        2.23110       -1.07577
| 22>    H       -1.78782        3.26866       -0.54234
| 23>    C        0.69257        3.48857       -1.22363
| 24>    H        1.73536        3.25730       -1.53016
| 25>    H        0.71800        4.03127       -0.25549
| 26>    H        0.23050        4.13922       -1.99539
| 27>    O        0.43078        1.16233       -1.29461
| 28> **                         ****END OF INPUT****
 Total Charge           Charge          ....    0
 Multiplicity           Mult            ....    1
 Number of Electrons    NEL             ....   80
Dispersion correction           -0.027149486
FINAL SINGLE POINT ENERGY      -515.545411738749
Dispersion correction            ... Starting D4
Dispersion correction           -0.027148120
FINAL SINGLE POINT ENERGY      -515.554072841181
Dispersion correction            ... Starting D4
Dispersion correction           -0.027146586
FINAL SINGLE POINT ENERGY      -515.556871622790
Dispersion correction            ... Starting D4
Dispersion correction           -0.027151169
FINAL SINGLE POINT ENERGY      -515.557158691729
Dispersion correction            ... Starting D4
Dispersion correction           -0.027151620
FINAL SINGLE POINT ENERGY      -515.557230304043
Dispersion correction            ... Starting D4
                    ***********************HURRAY********************

CARTESIAN COORDINATES (ANGSTROEM)
---------------------------------
  C     -2.342922    1.212078   -0.514525
  C     -3.648997    1.576222   -0.126105
  C     -4.633030    0.603226    0.089307
  C     -4.327423   -0.760205   -0.080674
  C     -3.024515   -1.126123   -0.468505
  C     -2.037740   -0.157934   -0.685009
  H     -3.903981    2.639332    0.011048
  H     -5.647045    0.910586    0.392183
  H     -1.024222   -0.442385   -0.986704
  H     -2.791961   -2.192287   -0.599551
  O     -5.244291   -1.765259    0.114210
  H     -6.088820   -1.347138    0.376856
  N     -1.399801    2.246823   -0.714328
  C     -0.069403    2.150524   -1.093145
  H     -1.758174    3.190346   -0.555345
  C      0.626430    3.506004   -1.203934
  H      1.673838    3.334948   -1.507372
  H      0.613620    4.045851   -0.233959
  H      0.131389    4.152558   -1.958511
  O      0.505428    1.083985   -1.320477

 Multiplicity           Mult            ....    1
 Number of Electrons    NEL             ....   80
 Basis Dimension        Dim             ....  199

ORBITAL ENERGIES
----------------

  NO   OCC          E(Eh)            E(eV)
   0   2.0000     -18.817700      -512.0557
   1   2.0000     -18.755378      -510.3598
   2   2.0000     -14.058440      -382.5496
   3   2.0000     -10.012270      -272.4477
   4   2.0000      -9.971054      -271.3262
   5   2.0000      -9.957189      -270.9489
   6   2.0000      -9.926545      -270.1150
   7   2.0000      -9.925513      -270.0869
   8   2.0000      -9.922396      -270.0021
   9   2.0000      -9.912843      -269.7422
  10   2.0000      -9.911930      -269.7173
  11   2.0000      -0.972075       -26.4515
  12   2.0000      -0.946753       -25.7624
  13   2.0000      -0.859800       -23.3963
  14   2.0000      -0.769583       -20.9414
  15   2.0000      -0.691053       -18.8045
  16   2.0000      -0.680243       -18.5103
  17   2.0000      -0.649965       -17.6864
  18   2.0000      -0.580577       -15.7983
  19   2.0000      -0.555027       -15.1030
  20   2.0000      -0.525767       -14.3068
  21   2.0000      -0.491531       -13.3752
  22   2.0000      -0.476277       -12.9602
  23   2.0000      -0.432806       -11.7773
  24   2.0000      -0.413898       -11.2627
  25   2.0000      -0.405756       -11.0412
  26   2.0000      -0.392195       -10.6722
  27   2.0000      -0.377902       -10.2832
  28   2.0000      -0.370343       -10.0775
  29   2.0000      -0.363854        -9.9010
  30   2.0000      -0.353062        -9.6073
  31   2.0000      -0.346491        -9.4285
  32   2.0000      -0.341410        -9.2902
  33   2.0000      -0.332432        -9.0459
  34   2.0000      -0.301128        -8.1941
  35   2.0000      -0.298650        -8.1267
  36   2.0000      -0.250277        -6.8104
  37   2.0000      -0.229011        -6.2317
  38   2.0000      -0.205713        -5.5977
  39   2.0000      -0.177738        -4.8365
  40   0.0000      -0.041142        -1.1195
  41   0.0000      -0.038558        -1.0492
  42   0.0000       0.008455         0.2301
  43   0.0000       0.019669         0.5352
  44   0.0000       0.024153         0.6572

MULLIKEN ATOMIC CHARGES
-----------------------
   0 C :    0.047703
   1 C :   -0.003371
   2 C :   -0.010866
   3 C :    0.037810
   4 C :    0.031128
   5 C :    0.026676
   6 H :   -0.023238
   7 H :   -0.018232
   8 H :    0.010111
   9 H :   -0.004747
  10 O :   -0.166800
  11 H :    0.150018
  12 N :   -0.105674
  13 C :    0.064105
  14 H :    0.083413
  15 C :   -0.069087
  16 H :    0.063542
  17 H :    0.060380
  18 H :    0.060428
  19 O :   -0.233299
Sum of atomic charges:    0.0000000

LOEWDIN ATOMIC CHARGES
----------------------
   0 C :   -0.052438
   1 C :   -0.050327
   2 C :   -0.076270
   3 C :   -0.066485
   4 C :   -0.041637
   5 C :   -0.028878
   6 H :    0.026058
   7 H :    0.027162
   8 H :    0.031829
   9 H :    0.035953
  10 O :    0.071710
  11 H :    0.064649
  12 N :    0.145559
  13 C :   -0.141885
  14 H :    0.067914
  15 C :   -0.096921
  16 H :    0.049128
  17 H :    0.044036
  18 H :    0.044060
  19 O :   -0.053217

  Mayer bond orders larger than 0.100000
B(  0-C ,  1-C ) :   1.3703 B(  0-C ,  5-C ) :   1.3920 B(  0-C , 12-N ) :   1.0918
B(  1-C ,  2-C ) :   1.4855 B(  1-C ,  6-H ) :   0.9173 B(  2-C ,  3-C ) :   1.3436
B(  2-C ,  7-H ) :   0.9154 B(  3-C ,  4-C ) :   1.3731 B(  3-C , 10-O ) :   1.2160
B(  4-C ,  5-C ) :   1.4832 B(  4-C ,  9-H ) :   0.9211 B(  5-C ,  8-H ) :   0.9043
B( 10-O , 11-H ) :   0.9934 B( 12-N , 13-C ) :   1.1944 B( 12-N , 14-H ) :   0.9297
B( 13-C , 15-C ) :   1.0326 B( 13-C , 19-O ) :   2.0513 B( 15-C , 16-H ) :   0.9566
B( 15-C , 17-H ) :   0.9499 B( 15-C , 18-H ) :   0.9499

Dispersion correction           -0.027153436
FINAL SINGLE POINT ENERGY      -515.557238473455

DIPOLE MOMENT
-------------
                                X             Y             Z
Electronic contribution:     -2.84183      -5.36076       0.46362
Nuclear contribution   :      1.81198       6.73034      -0.09002
                        -----------------------------------------
Total Dipole Moment    :     -1.02985       1.36958       0.37360
                        -----------------------------------------
Magnitude (a.u.)       :      1.75383
Magnitude (Debye)      :      4.45788

Dispersion correction in the Hessian             ... Starting D4

VIBRATIONAL FREQUENCIES
-----------------------

Scaling factor for frequencies =  1.000000000  (already applied!)

   0:         0.00 cm**-1
   1:         0.00 cm**-1
   2:         0.00 cm**-1
   3:         0.00 cm**-1
   4:         0.00 cm**-1
   5:         0.00 cm**-1
   6:       -57.02 cm**-1 ***imaginary mode***
   7:        55.39 cm**-1
   8:        73.50 cm**-1
   9:       150.81 cm**-1
  10:       170.47 cm**-1
  11:       305.30 cm**-1
  12:       307.78 cm**-1
  13:       356.59 cm**-1
  14:       366.59 cm**-1
  15:       407.47 cm**-1
  16:       408.56 cm**-1
  17:       487.73 cm**-1
  18:       503.79 cm**-1
  19:       508.66 cm**-1
  20:       590.27 cm**-1
  21:       613.57 cm**-1
  22:       637.93 cm**-1
  23:       698.30 cm**-1
  24:       764.26 cm**-1
  25:       775.45 cm**-1
  26:       824.92 cm**-1
  27:       842.14 cm**-1
  28:       870.74 cm**-1
  29:       938.09 cm**-1
  30:       949.28 cm**-1
  31:       958.16 cm**-1
  32:       988.61 cm**-1
  33:       989.14 cm**-1
  34:      1083.21 cm**-1
  35:      1141.30 cm**-1
  36:      1163.48 cm**-1
  37:      1203.39 cm**-1
  38:      1228.93 cm**-1
  39:      1269.15 cm**-1
  40:      1283.94 cm**-1
  41:      1312.30 cm**-1
  42:      1377.82 cm**-1
  43:      1393.17 cm**-1
  44:      1408.61 cm**-1
  45:      1420.63 cm**-1
  46:      1490.08 cm**-1
  47:      1513.97 cm**-1
  48:      1598.44 cm**-1
  49:      1630.27 cm**-1
  50:      1719.01 cm**-1
  51:      2963.97 cm**-1
  52:      3037.64 cm**-1
  53:      3079.24 cm**-1
  54:      3097.09 cm**-1
  55:      3099.66 cm**-1
  56:      3126.43 cm**-1
  57:      3174.21 cm**-1
  58:      3494.86 cm**-1
  59:      3649.44 cm**-1

IR SPECTRUM
-----------

 Mode   freq       eps      Int      T**2         TX        TY        TZ
       cm**-1   L/(mol*cm) km/mol    a.u.
----------------------------------------------------------------------------
  7:     55.39   0.000053    0.27  0.000296  ( 0.004691 -0.001072  0.016522)
  8:     73.50   0.000747    3.78  0.003173  (-0.015199  0.003346 -0.054141)
  9:    150.81   0.000722    3.65  0.001494  ( 0.035167  0.013245 -0.009030)
 10:    170.47   0.000024    0.12  0.000043  ( 0.001954 -0.000286  0.006256)
 11:    305.30   0.001118    5.65  0.001142  (-0.025064 -0.021979  0.005581)
 12:    307.78   0.000048    0.24  0.000049  ( 0.002063 -0.006527 -0.001382)
 13:    356.59   0.017876   90.34  0.015644  ( 0.033633 -0.007493  0.120234)
 14:    366.59   0.001164    5.88  0.000991  (-0.008394  0.001949 -0.030280)
 15:    407.47   0.000161    0.81  0.000123  ( 0.002700 -0.000943  0.010716)
 16:    408.56   0.001899    9.60  0.001450  ( 0.027367  0.025808 -0.005932)
 17:    487.73   0.004155   21.00  0.002658  ( 0.039273  0.032148 -0.009087)
 18:    503.79   0.008337   42.13  0.005164  (-0.019449  0.004223 -0.069050)
 19:    508.66   0.002582   13.05  0.001584  ( 0.010793 -0.002357  0.038239)
 20:    590.27   0.002430   12.28  0.001285  (-0.009641  0.002171 -0.034451)
 21:    613.57   0.000251    1.27  0.000128  ( 0.000213 -0.011259 -0.000830)
 22:    637.93   0.000394    1.99  0.000193  ( 0.012254  0.005726 -0.003131)
 23:    698.30   0.000060    0.31  0.000027  ( 0.001371 -0.000323  0.005005)
 24:    764.26   0.003768   19.04  0.001539  ( 0.010601 -0.002282  0.037698)
 25:    775.45   0.002564   12.96  0.001032  ( 0.021670  0.023257 -0.004643)
 26:    824.92   0.005293   26.75  0.002002  ( 0.012051 -0.002695  0.043009)
 27:    842.14   0.001767    8.93  0.000655  ( 0.020735  0.014176 -0.004883)
 28:    870.74   0.000040    0.20  0.000014  (-0.001055  0.000188 -0.003640)
 29:    938.09   0.003084   15.59  0.001026  ( 0.026298  0.017171 -0.006297)
 30:    949.28   0.000109    0.55  0.000036  (-0.001648  0.000373 -0.005757)
 31:    958.16   0.005099   25.77  0.001661  ( 0.035050  0.018894 -0.008671)
 32:    988.61   0.000543    2.74  0.000171  ( 0.003518 -0.000770  0.012587)
 33:    989.14   0.000174    0.88  0.000055  (-0.005978 -0.004092  0.001523)
 34:   1083.21   0.003162   15.98  0.000911  ( 0.022499 -0.018690 -0.007451)
 35:   1141.30   0.000858    4.33  0.000235  ( 0.013246  0.006950 -0.003283)
 36:   1163.48   0.034901  176.38  0.009361  (-0.066122 -0.069182  0.014242)
 37:   1203.39   0.012096   61.13  0.003137  (-0.045787 -0.030350  0.010919)
 38:   1228.93   0.012474   63.04  0.003167  (-0.040806 -0.037674  0.009111)
 39:   1269.15   0.006145   31.05  0.001511  (-0.037290 -0.004056  0.010193)
 40:   1283.94   0.005803   29.33  0.001411  ( 0.017768  0.032956 -0.002955)
 41:   1312.30   0.002529   12.78  0.000601  (-0.010530 -0.022087  0.001612)
 42:   1377.82   0.029924  151.22  0.006777  ( 0.074356  0.029799 -0.018990)
 43:   1393.17   0.004668   23.59  0.001046  (-0.030726  0.004768  0.008882)
 44:   1408.61   0.001653    8.36  0.000366  (-0.005159  0.001193 -0.018391)
 45:   1420.63   0.020186  102.01  0.004434  (-0.054925 -0.035269  0.013174)
 46:   1490.08   0.004873   24.62  0.001020  (-0.012954 -0.029143  0.001840)
 47:   1513.97   0.084764  428.36  0.017472  ( 0.109397  0.069352 -0.026351)
 48:   1598.44   0.006493   32.81  0.001268  (-0.028226 -0.020663  0.006631)
 49:   1630.27   0.000768    3.88  0.000147  (-0.007553 -0.009361  0.001551)
 50:   1719.01   0.041249  208.46  0.007488  ( 0.071526 -0.043066 -0.022749)
 51:   2963.97   0.001771    8.95  0.000186  ( 0.002178  0.013477  0.000304)
 52:   3037.64   0.001951    9.86  0.000200  ( 0.003783 -0.000866  0.013615)
 53:   3079.24   0.004530   22.89  0.000459  ( 0.014802  0.015157 -0.003205)
 54:   3097.09   0.003085   15.59  0.000311  ( 0.013103 -0.010977 -0.004319)
 55:   3099.66   0.000743    3.75  0.000075  (-0.007994  0.002314  0.002345)
 56:   3126.43   0.001124    5.68  0.000112  ( 0.000945  0.010543  0.000360)
 57:   3174.21   0.001559    7.88  0.000153  (-0.011354 -0.003957  0.002955)
 58:   3494.86   0.002155   10.89  0.000192  ( 0.007455 -0.011355 -0.002814)
 59:   3649.44   0.010198   51.53  0.000872  ( 0.028325  0.003104 -0.007748)

--------------------------
THERMOCHEMISTRY AT 298.15K
--------------------------

Temperature         ... 298.15 K
Pressure            ... 1.00 atm
Total Mass          ... 151.16 AMU

Throughout the following assumptions are being made:
  (1) The electronic state is orbitally nondegenerate
  (2) There are no thermally accessible electronically excited states
  (3) Hindered rotations indicated by low frequency modes are not
      treated as such but are treated as vibrations and this may
      cause some error
  (4) All equations used are the standard statistical mechanics
      equations for an ideal gas
  (5) All vibrations are strictly harmonic

freq.      55.39  E(vib)   ...       0.52
freq.      73.50  E(vib)   ...       0.49
freq.     150.81  E(vib)   ...       0.40
freq.     170.47  E(vib)   ...       0.38
freq.     305.30  E(vib)   ...       0.26
freq.     307.78  E(vib)   ...       0.26
freq.     356.59  E(vib)   ...       0.22
freq.     366.59  E(vib)   ...       0.22
freq.     407.47  E(vib)   ...       0.19
freq.     408.56  E(vib)   ...       0.19
freq.     487.73  E(vib)   ...       0.15
freq.     503.79  E(vib)   ...       0.14
freq.     508.66  E(vib)   ...       0.14
freq.     590.27  E(vib)   ...       0.10
freq.     613.57  E(vib)   ...       0.10
freq.     637.93  E(vib)   ...       0.09
freq.     698.30  E(vib)   ...       0.07
freq.     764.26  E(vib)   ...       0.06
freq.     775.45  E(vib)   ...       0.05
freq.     824.92  E(vib)   ...       0.04
freq.     842.14  E(vib)   ...       0.04
freq.     870.74  E(vib)   ...       0.04
freq.     938.09  E(vib)   ...       0.03
freq.     949.28  E(vib)   ...       0.03
freq.     958.16  E(vib)   ...       0.03
freq.     988.61  E(vib)   ...       0.02
freq.     989.14  E(vib)   ...       0.02
freq.    1083.21  E(vib)   ...       0.02
freq.    1141.30  E(vib)   ...       0.01
freq.    1163.48  E(vib)   ...       0.01
freq.    1203.39  E(vib)   ...       0.01
freq.    1228.93  E(vib)   ...       0.01
freq.    1269.15  E(vib)   ...       0.01
freq.    1283.94  E(vib)   ...       0.01
freq.    1312.30  E(vib)   ...       0.01
freq.    1377.82  E(vib)   ...       0.01
freq.    1393.17  E(vib)   ...       0.00
freq.    1408.61  E(vib)   ...       0.00
freq.    1420.63  E(vib)   ...       0.00
freq.    1490.08  E(vib)   ...       0.00
freq.    1513.97  E(vib)   ...       0.00
freq.    1598.44  E(vib)   ...       0.00
freq.    1630.27  E(vib)   ...       0.00
freq.    1719.01  E(vib)   ...       0.00
freq.    2963.97  E(vib)   ...       0.00
freq.    3037.64  E(vib)   ...       0.00
freq.    3079.24  E(vib)   ...       0.00
freq.    3097.09  E(vib)   ...       0.00
freq.    3099.66  E(vib)   ...       0.00
freq.    3126.43  E(vib)   ...       0.00
freq.    3174.21  E(vib)   ...       0.00
freq.    3494.86  E(vib)   ...       0.00
freq.    3649.44  E(vib)   ...       0.00

------------
INNER ENERGY
------------

The inner energy is: U= E(el) + E(ZPE) + E(vib) + E(rot) + E(trans)
    E(el)   - is the total energy from the electronic structure calculation
              = E(kin-el) + E(nuc-el) + E(el-el) + E(nuc-nuc)
    E(ZPE)  - the the zero temperature vibrational energy from the frequency calculation
    E(vib)  - the the finite temperature correction to E(ZPE) due to population
              of excited vibrational states
    E(rot)  - is the rotational thermal energy
    E(trans)- is the translational thermal energy

Summary of contributions to the inner energy U:
Electronic energy                ...   -515.55723847 Eh
Zero point energy                ...      0.15378475 Eh      96.50 kcal/mol
Thermal vibrational correction   ...      0.00699714 Eh       4.39 kcal/mol
Thermal rotational correction    ...      0.00141627 Eh       0.89 kcal/mol
Thermal translational correction ...      0.00141627 Eh       0.89 kcal/mol
-----------------------------------------------------------------------
Total thermal energy                   -515.39362404 Eh

Summary of corrections to the electronic energy:
(perhaps to be used in another calculation)
Total thermal correction                  0.00982968 Eh       6.17 kcal/mol
Non-thermal (ZPE) correction              0.15378475 Eh      96.50 kcal/mol
-----------------------------------------------------------------------
Total correction                          0.16361443 Eh     102.67 kcal/mol

--------
ENTHALPY
--------

The enthalpy is H = U + kB*T
                kB is Boltzmann's constant
Total free energy                 ...   -515.39362404 Eh
Thermal Enthalpy correction       ...      0.00094421 Eh       0.59 kcal/mol
-----------------------------------------------------------------------
Total Enthalpy                    ...   -515.39267983 Eh

Note: Only C1 symmetry has been detected, increase convergence thresholds
      if your molecule has a higher symmetry. Symmetry factor of 1.0 is
      used for the rotational entropy correction.

Note: Rotational entropy computed according to Herzberg
Infrared and Raman Spectra, Chapter V,1, Van Nostrand Reinhold, 1945
Point Group:  C1, Symmetry Number:   1
Rotational constants in cm-1:     0.117796     0.018012     0.015671

Vibrational entropy computed according to the QRRHO of S. Grimme
Chem.Eur.J. 2012 18 9955

-------
ENTROPY
-------

The entropy contributions are T*S = T*(S(el)+S(vib)+S(rot)+S(trans))
     S(el)   - electronic entropy
     S(vib)  - vibrational entropy
     S(rot)  - rotational entropy
     S(trans)- translational entropy
The entropies will be listed as multiplied by the temperature to get
units of energy

Electronic entropy                ...      0.00000000 Eh      0.00 kcal/mol
Vibrational entropy               ...      0.01158188 Eh      7.27 kcal/mol
Rotational entropy                ...      0.01437875 Eh      9.02 kcal/mol
Translational entropy             ...      0.01945645 Eh     12.21 kcal/mol
-----------------------------------------------------------------------
Final entropy term                ...      0.04541708 Eh     28.50 kcal/mol

In case the symmetry of your molecule has not been determined correctly
or in case you have a reason to use a different symmetry number we print
out the resulting rotational entropy values for sn=1,12 :
 --------------------------------------------------------
|  sn= 1 | S(rot)=       0.01437875 Eh      9.02 kcal/mol|
|  sn= 2 | S(rot)=       0.01372430 Eh      8.61 kcal/mol|
|  sn= 3 | S(rot)=       0.01334146 Eh      8.37 kcal/mol|
|  sn= 4 | S(rot)=       0.01306984 Eh      8.20 kcal/mol|
|  sn= 5 | S(rot)=       0.01285915 Eh      8.07 kcal/mol|
|  sn= 6 | S(rot)=       0.01268701 Eh      7.96 kcal/mol|
|  sn= 7 | S(rot)=       0.01254146 Eh      7.87 kcal/mol|
|  sn= 8 | S(rot)=       0.01241538 Eh      7.79 kcal/mol|
|  sn= 9 | S(rot)=       0.01230418 Eh      7.72 kcal/mol|
|  sn=10 | S(rot)=       0.01220470 Eh      7.66 kcal/mol|

                             ****ORCA TERMINATED NORMALLY****
TOTAL RUN TIME: 0 days 0 hours 20 minutes 30 seconds 731 msec
