                         Program Version 5.0.4 -  RELEASE  -
|  1> !B3LYP/G DEF2-TZVP COPT FREQ D4 SOSCF
|  2>
|  3> * xyz 1 1
|  4>   C   -5.63725555436335      0.98899874329515      0.21143731105954
|  5>   C   -6.61524513455999      1.64479024878323     -0.54151690386741
|  6>   C   -7.25970173966677      1.00967137309125     -1.58904618989250
|  7>   C   -6.92062604431759     -0.30362370539239     -1.88291326135627
|  8>   C   -5.95831324748989     -0.98694197191882     -1.15534464262827
|  9>   C   -5.32131205703316     -0.33154419579735     -0.11375427455918
| 10>   C   -4.95759796008800      1.68707067612682      1.35420600464028
| 11>   H   -4.01505294221542      1.20546634971565      1.61127557408429
| 12>   H   -5.59048773687366      1.67367642391712      2.24555037853371
| 13>   H   -4.75615851271304      2.73184328865900      1.11603493305350
| 14>   H   -6.87004918838875      2.67076103014061     -0.30634972814763
| 15>   H   -8.01147152638620      1.51131297415801     -2.17909918625573
| 16>   H   -5.71641472066939     -2.00625554484822     -1.41503486752261
| 17>   H   -4.56130033440061     -0.85285320518107      0.45466036609449
| 18>   N   -7.58940947091777     -0.98171342884454     -3.00078187901111
| 19>   O   -7.31396723977917     -2.15557775105460     -3.20456096513483
| 20>   O   -8.38382380037584     -0.33444134289835     -3.66701453995351
| 21>   H   -14.01431599520870    -10.62009079787079    -11.87983500894279
| 22> *
| 23>
| 24>                          ****END OF INPUT****
 Total Charge           Charge          ....    1
 Multiplicity           Mult            ....    1
 Number of Electrons    NEL             ....   72
Dispersion correction           -0.026582717
FINAL SINGLE POINT ENERGY      -476.288716882424
Dispersion correction            ... Starting D4
                    ***********************HURRAY********************

CARTESIAN COORDINATES (ANGSTROEM)
---------------------------------
  C     -5.637300    0.988958    0.211401
  C     -6.615217    1.644778   -0.541560
  C     -7.259714    1.009673   -1.589017
  C     -6.920544   -0.303567   -1.882941
  C     -5.958257   -0.986918   -1.155378
  C     -5.321341   -0.331550   -0.113781
  C     -4.957602    1.687066    1.354203
  H     -4.014979    1.205403    1.611335
  H     -5.590553    1.673654    2.245618
  H     -4.756167    2.731951    1.116030
  H     -6.870062    2.670679   -0.306368
  H     -8.011419    1.511346   -2.179089
  H     -5.716424   -2.006242   -1.414976
  H     -4.561386   -0.852844    0.454615
  N     -7.589493   -0.981750   -3.000764
  O     -7.313910   -2.155612   -3.204478
  O     -8.383865   -0.334408   -3.667032
  H    -14.014276  -10.620013  -11.879801

 Multiplicity           Mult            ....    1
 Number of Electrons    NEL             ....   72
 Basis Dimension        Dim             ....  358

ORBITAL ENERGIES
----------------

  NO   OCC          E(Eh)            E(eV)
   0   2.0000     -19.194205      -522.3009
   1   2.0000     -19.194120      -522.2986
   2   2.0000     -14.588431      -396.9714
   3   2.0000     -10.272409      -279.5265
   4   2.0000     -10.246569      -278.8233
   5   2.0000     -10.238564      -278.6055
   6   2.0000     -10.238249      -278.5969
   7   2.0000     -10.231272      -278.4071
   8   2.0000     -10.231037      -278.4007
   9   2.0000     -10.218517      -278.0600
  10   2.0000      -1.269055       -34.5327
  11   2.0000      -1.094557       -29.7844
  12   2.0000      -0.932250       -25.3678
  13   2.0000      -0.859203       -23.3801
  14   2.0000      -0.811343       -22.0778
  15   2.0000      -0.782298       -21.2874
  16   2.0000      -0.704520       -19.1710
  17   2.0000      -0.673509       -18.3271
  18   2.0000      -0.629918       -17.1410
  19   2.0000      -0.601387       -16.3646
  20   2.0000      -0.576593       -15.6899
  21   2.0000      -0.557222       -15.1628
  22   2.0000      -0.525794       -14.3076
  23   2.0000      -0.522842       -14.2273
  24   2.0000      -0.500737       -13.6257
  25   2.0000      -0.485352       -13.2071
  26   2.0000      -0.476506       -12.9664
  27   2.0000      -0.441647       -12.0178
  28   2.0000      -0.420634       -11.4460
  29   2.0000      -0.419505       -11.4153
  30   2.0000      -0.403150       -10.9703
  31   2.0000      -0.355527        -9.6744
  32   2.0000      -0.352315        -9.5870
  33   2.0000      -0.335100        -9.1185
  34   2.0000      -0.318029        -8.6540
  35   2.0000      -0.311880        -8.4867
  36   0.0000      -0.497367       -13.5340
  37   0.0000      -0.130252        -3.5443
  38   0.0000      -0.071614        -1.9487
  39   0.0000      -0.042370        -1.1529
  40   0.0000      -0.000430        -0.0117

MULLIKEN ATOMIC CHARGES
-----------------------
   0 C :    0.151645
   1 C :   -0.138834
   2 C :   -0.152575
   3 C :    0.079032
   4 C :   -0.155680
   5 C :   -0.137872
   6 C :   -0.351999
   7 H :    0.121657
   8 H :    0.132564
   9 H :    0.126506
  10 H :    0.119905
  11 H :    0.154294
  12 H :    0.152115
  13 H :    0.118084
  14 N :    0.418620
  15 O :   -0.320234
  16 O :   -0.317230
  17 H :    1.000000
Sum of atomic charges:    1.0000000

LOEWDIN ATOMIC CHARGES
----------------------
   0 C :   -0.143668
   1 C :   -0.098688
   2 C :   -0.088110
   3 C :   -0.162730
   4 C :   -0.088332
   5 C :   -0.101081
   6 C :   -0.242996
   7 H :    0.128728
   8 H :    0.135052
   9 H :    0.131072
  10 H :    0.150523
  11 H :    0.157669
  12 H :    0.157149
  13 H :    0.149592
  14 N :   -0.025662
  15 O :   -0.030900
  16 O :   -0.027618
  17 H :    1.000000

  Mayer bond orders larger than 0.100000
B(  0-C ,  1-C ) :   1.3466 B(  0-C ,  5-C ) :   1.3687 B(  0-C ,  6-C ) :   0.9199
B(  1-C ,  2-C ) :   1.4278 B(  1-C , 10-H ) :   0.9764 B(  2-C ,  3-C ) :   1.3964
B(  2-C , 11-H ) :   0.9347 B(  3-C ,  4-C ) :   1.4062 B(  3-C , 14-N ) :   0.9812
B(  4-C ,  5-C ) :   1.4204 B(  4-C , 12-H ) :   0.9351 B(  5-C , 13-H ) :   0.9703
B(  6-C ,  7-H ) :   0.9875 B(  6-C ,  8-H ) :   0.9505 B(  6-C ,  9-H ) :   0.9785
B( 14-N , 15-O ) :   1.6049 B( 14-N , 16-O ) :   1.6065 B( 15-O , 16-O ) :   0.1990

Dispersion correction           -0.026582831
FINAL SINGLE POINT ENERGY      -476.288717223889

DIPOLE MOMENT
-------------
                                X             Y             Z
Electronic contribution:    -12.76502     -16.02741     -19.38263
Nuclear contribution   :     -0.06826      -2.80378       1.47078
                        -----------------------------------------
Total Dipole Moment    :    -12.83327     -18.83119     -17.91184
                        -----------------------------------------
Magnitude (a.u.)       :     28.98518
Magnitude (Debye)      :     73.67447

Dispersion correction in the Hessian             ... Starting D4

VIBRATIONAL FREQUENCIES
-----------------------

Scaling factor for frequencies =  1.000000000  (already applied!)

   0:         0.00 cm**-1
   1:         0.00 cm**-1
   2:         0.00 cm**-1
   3:         0.00 cm**-1
   4:         0.00 cm**-1
   5:         0.00 cm**-1
   6:       -37.34 cm**-1 ***imaginary mode***
   7:       -21.55 cm**-1 ***imaginary mode***
   8:        14.00 cm**-1
   9:        14.75 cm**-1
  10:        55.58 cm**-1
  11:       107.37 cm**-1
  12:       222.02 cm**-1
  13:       282.80 cm**-1
  14:       359.93 cm**-1
  15:       363.73 cm**-1
  16:       420.61 cm**-1
  17:       482.35 cm**-1
  18:       535.64 cm**-1
  19:       627.75 cm**-1
  20:       650.11 cm**-1
  21:       706.69 cm**-1
  22:       762.42 cm**-1
  23:       803.71 cm**-1
  24:       852.59 cm**-1
  25:       863.39 cm**-1
  26:       879.04 cm**-1
  27:       984.50 cm**-1
  28:       992.12 cm**-1
  29:      1012.27 cm**-1
  30:      1038.65 cm**-1
  31:      1064.88 cm**-1
  32:      1127.36 cm**-1
  33:      1138.11 cm**-1
  34:      1207.36 cm**-1
  35:      1236.62 cm**-1
  36:      1334.52 cm**-1
  37:      1355.40 cm**-1
  38:      1375.18 cm**-1
  39:      1417.71 cm**-1
  40:      1442.30 cm**-1
  41:      1488.44 cm**-1
  42:      1493.97 cm**-1
  43:      1533.33 cm**-1
  44:      1576.63 cm**-1
  45:      1644.76 cm**-1
  46:      1646.69 cm**-1
  47:      3034.15 cm**-1
  48:      3088.26 cm**-1
  49:      3118.11 cm**-1
  50:      3177.38 cm**-1
  51:      3179.24 cm**-1
  52:      3228.74 cm**-1
  53:      3228.81 cm**-1

IR SPECTRUM
-----------

 Mode   freq       eps      Int      T**2         TX        TY        TZ
       cm**-1   L/(mol*cm) km/mol    a.u.
----------------------------------------------------------------------------
  8:     14.00   0.140106  708.04  3.122170  (-1.308915  1.117050 -0.401387)
  9:     14.75   0.135836  686.46  2.874411  ( 0.816711  0.559842 -1.376216)
 10:     55.58   0.000057    0.29  0.000320  ( 0.003320 -0.011872  0.012956)
 11:    107.37   0.000165    0.83  0.000480  ( 0.014600  0.005744 -0.015294)
 12:    222.02   0.000169    0.86  0.000238  ( 0.008461 -0.012456  0.003383)
 13:    282.80   0.000739    3.73  0.000815  ( 0.021268  0.008293 -0.017147)
 14:    359.93   0.000043    0.22  0.000037  ( 0.004752 -0.002458  0.002910)
 15:    363.73   0.000175    0.89  0.000150  (-0.003829 -0.006977 -0.009323)
 16:    420.61   0.000001    0.01  0.000001  ( 0.000558 -0.000482 -0.000750)
 17:    482.35   0.001843    9.31  0.001192  (-0.022342 -0.011519  0.023674)
 18:    535.64   0.000365    1.84  0.000212  ( 0.009440 -0.011090 -0.000538)
 19:    627.75   0.000713    3.60  0.000354  ( 0.009451  0.009442  0.013258)
 20:    650.11   0.000103    0.52  0.000049  (-0.004140  0.005605 -0.000939)
 21:    706.69   0.000939    4.74  0.000414  (-0.013561 -0.005791  0.014036)
 22:    762.42   0.006976   35.26  0.002855  ( 0.038462  0.017171 -0.032882)
 23:    803.71   0.001462    7.39  0.000568  (-0.012263 -0.011221 -0.017066)
 24:    852.59   0.000028    0.14  0.000010  ( 0.001704  0.002708  0.000367)
 25:    863.39   0.004417   22.32  0.001597  (-0.030227 -0.015644  0.020933)
 26:    879.04   0.006604   33.37  0.002344  (-0.020478 -0.021455 -0.038271)
 27:    984.50   0.000013    0.07  0.000004  ( 0.001751  0.000911  0.000452)
 28:    992.12   0.000445    2.25  0.000140  (-0.006505 -0.001929  0.009693)
 29:   1012.27   0.000327    1.65  0.000101  (-0.006243  0.000717 -0.007833)
 30:   1038.65   0.000531    2.68  0.000159  ( 0.007533  0.006009  0.008164)
 31:   1064.88   0.002696   13.62  0.000790  (-0.000598  0.005846  0.027487)
 32:   1127.36   0.009273   46.86  0.002567  ( 0.023170  0.024401  0.037875)
 33:   1138.11   0.001434    7.25  0.000393  ( 0.010602 -0.016253  0.004085)
 34:   1207.36   0.001132    5.72  0.000293  (-0.007578 -0.008286 -0.012907)
 35:   1236.62   0.000829    4.19  0.000209  (-0.005092 -0.005959 -0.012152)
 36:   1334.52   0.000323    1.63  0.000075  ( 0.002365 -0.008221 -0.001497)
 37:   1355.40   0.002334   11.80  0.000537  ( 0.008646 -0.021501 -0.000655)
 38:   1375.18   0.075122  379.63  0.017047  (-0.059458 -0.060322 -0.099363)
 39:   1417.71   0.000819    4.14  0.000180  ( 0.003936  0.005752  0.011473)
 40:   1442.30   0.000009    0.04  0.000002  ( 0.000384  0.001020 -0.000825)
 41:   1488.44   0.001313    6.63  0.000275  ( 0.008877  0.008023 -0.011490)
 42:   1493.97   0.000685    3.46  0.000143  (-0.009574  0.006300  0.003423)
 43:   1533.33   0.002576   13.02  0.000524  (-0.008963 -0.011873 -0.017406)
 44:   1576.63   0.046466  234.82  0.009197  (-0.047543  0.080517 -0.021302)
 45:   1644.76   0.007672   38.77  0.001456  (-0.018631 -0.015232 -0.029605)
 46:   1646.69   0.008043   40.65  0.001524  ( 0.017732 -0.034153  0.006588)
 47:   3034.15   0.002371   11.98  0.000244  ( 0.004038  0.006532  0.013596)
 48:   3088.26   0.002299   11.62  0.000232  (-0.012537 -0.008438  0.001969)
 49:   3118.11   0.002209   11.16  0.000221  (-0.009765  0.009989 -0.005088)
 50:   3177.38   0.001643    8.30  0.000161  (-0.004083  0.011935  0.001509)
 51:   3179.24   0.001304    6.59  0.000128  (-0.007924  0.001706 -0.007894)
 52:   3228.74   0.000080    0.40  0.000008  ( 0.001455 -0.002257  0.000711)
 53:   3228.81   0.000586    2.96  0.000057  (-0.003556 -0.003285 -0.005759)

--------------------------
THERMOCHEMISTRY AT 298.15K
--------------------------

Temperature         ... 298.15 K
Pressure            ... 1.00 atm
Total Mass          ... 138.15 AMU

Throughout the following assumptions are being made:
  (1) The electronic state is orbitally nondegenerate
  (2) There are no thermally accessible electronically excited states
  (3) Hindered rotations indicated by low frequency modes are not
      treated as such but are treated as vibrations and this may
      cause some error
  (4) All equations used are the standard statistical mechanics
      equations for an ideal gas
  (5) All vibrations are strictly harmonic

freq.      14.00  E(vib)   ...       0.57
freq.      14.75  E(vib)   ...       0.57
freq.      55.58  E(vib)   ...       0.52
freq.     107.37  E(vib)   ...       0.45
freq.     222.02  E(vib)   ...       0.33
freq.     282.80  E(vib)   ...       0.28
freq.     359.93  E(vib)   ...       0.22
freq.     363.73  E(vib)   ...       0.22
freq.     420.61  E(vib)   ...       0.18
freq.     482.35  E(vib)   ...       0.15
freq.     535.64  E(vib)   ...       0.12
freq.     627.75  E(vib)   ...       0.09
freq.     650.11  E(vib)   ...       0.08
freq.     706.69  E(vib)   ...       0.07
freq.     762.42  E(vib)   ...       0.06
freq.     803.71  E(vib)   ...       0.05
freq.     852.59  E(vib)   ...       0.04
freq.     863.39  E(vib)   ...       0.04
freq.     879.04  E(vib)   ...       0.04
freq.     984.50  E(vib)   ...       0.02
freq.     992.12  E(vib)   ...       0.02
freq.    1012.27  E(vib)   ...       0.02
freq.    1038.65  E(vib)   ...       0.02
freq.    1064.88  E(vib)   ...       0.02
freq.    1127.36  E(vib)   ...       0.01
freq.    1138.11  E(vib)   ...       0.01
freq.    1207.36  E(vib)   ...       0.01
freq.    1236.62  E(vib)   ...       0.01
freq.    1334.52  E(vib)   ...       0.01
freq.    1355.40  E(vib)   ...       0.01
freq.    1375.18  E(vib)   ...       0.01
freq.    1417.71  E(vib)   ...       0.00
freq.    1442.30  E(vib)   ...       0.00
freq.    1488.44  E(vib)   ...       0.00
freq.    1493.97  E(vib)   ...       0.00
freq.    1533.33  E(vib)   ...       0.00
freq.    1576.63  E(vib)   ...       0.00
freq.    1644.76  E(vib)   ...       0.00
freq.    1646.69  E(vib)   ...       0.00
freq.    3034.15  E(vib)   ...       0.00
freq.    3088.26  E(vib)   ...       0.00
freq.    3118.11  E(vib)   ...       0.00
freq.    3177.38  E(vib)   ...       0.00
freq.    3179.24  E(vib)   ...       0.00
freq.    3228.74  E(vib)   ...       0.00
freq.    3228.81  E(vib)   ...       0.00

------------
INNER ENERGY
------------

The inner energy is: U= E(el) + E(ZPE) + E(vib) + E(rot) + E(trans)
    E(el)   - is the total energy from the electronic structure calculation
              = E(kin-el) + E(nuc-el) + E(el-el) + E(nuc-nuc)
    E(ZPE)  - the the zero temperature vibrational energy from the frequency calculation
    E(vib)  - the the finite temperature correction to E(ZPE) due to population
              of excited vibrational states
    E(rot)  - is the rotational thermal energy
    E(trans)- is the translational thermal energy

Summary of contributions to the inner energy U:
Electronic energy                ...   -476.28871722 Eh
Zero point energy                ...      0.13024276 Eh      81.73 kcal/mol
Thermal vibrational correction   ...      0.00681258 Eh       4.27 kcal/mol
Thermal rotational correction    ...      0.00141627 Eh       0.89 kcal/mol
Thermal translational correction ...      0.00141627 Eh       0.89 kcal/mol
-----------------------------------------------------------------------
Total thermal energy                   -476.14882934 Eh

Summary of corrections to the electronic energy:
(perhaps to be used in another calculation)
Total thermal correction                  0.00964512 Eh       6.05 kcal/mol
Non-thermal (ZPE) correction              0.13024276 Eh      81.73 kcal/mol
-----------------------------------------------------------------------
Total correction                          0.13988788 Eh      87.78 kcal/mol

--------
ENTHALPY
--------

The enthalpy is H = U + kB*T
                kB is Boltzmann's constant
Total free energy                 ...   -476.14882934 Eh
Thermal Enthalpy correction       ...      0.00094421 Eh       0.59 kcal/mol
-----------------------------------------------------------------------
Total Enthalpy                    ...   -476.14788513 Eh

Note: Only C1 symmetry has been detected, increase convergence thresholds
      if your molecule has a higher symmetry. Symmetry factor of 1.0 is
      used for the rotational entropy correction.

Note: Rotational entropy computed according to Herzberg
Infrared and Raman Spectra, Chapter V,1, Van Nostrand Reinhold, 1945
Point Group:  C1, Symmetry Number:   1
Rotational constants in cm-1:     0.122773     0.018964     0.016572

Vibrational entropy computed according to the QRRHO of S. Grimme
Chem.Eur.J. 2012 18 9955

-------
ENTROPY
-------

The entropy contributions are T*S = T*(S(el)+S(vib)+S(rot)+S(trans))
     S(el)   - electronic entropy
     S(vib)  - vibrational entropy
     S(rot)  - rotational entropy
     S(trans)- translational entropy
The entropies will be listed as multiplied by the temperature to get
units of energy

Electronic entropy                ...      0.00000000 Eh      0.00 kcal/mol
Vibrational entropy               ...      0.01275610 Eh      8.00 kcal/mol
Rotational entropy                ...      0.01430850 Eh      8.98 kcal/mol
Translational entropy             ...      0.01932890 Eh     12.13 kcal/mol
-----------------------------------------------------------------------
Final entropy term                ...      0.04639349 Eh     29.11 kcal/mol

In case the symmetry of your molecule has not been determined correctly
or in case you have a reason to use a different symmetry number we print
out the resulting rotational entropy values for sn=1,12 :
 --------------------------------------------------------
|  sn= 1 | S(rot)=       0.01430850 Eh      8.98 kcal/mol|
|  sn= 2 | S(rot)=       0.01365404 Eh      8.57 kcal/mol|
|  sn= 3 | S(rot)=       0.01327121 Eh      8.33 kcal/mol|
|  sn= 4 | S(rot)=       0.01299958 Eh      8.16 kcal/mol|
|  sn= 5 | S(rot)=       0.01278890 Eh      8.03 kcal/mol|
|  sn= 6 | S(rot)=       0.01261675 Eh      7.92 kcal/mol|
|  sn= 7 | S(rot)=       0.01247120 Eh      7.83 kcal/mol|
|  sn= 8 | S(rot)=       0.01234513 Eh      7.75 kcal/mol|
|  sn= 9 | S(rot)=       0.01223392 Eh      7.68 kcal/mol|
|  sn=10 | S(rot)=       0.01213444 Eh      7.61 kcal/mol|
|  sn=11 | S(rot)=       0.01204445 Eh      7.56 kcal/mol|
|  sn=12 | S(rot)=       0.01196229 Eh      7.51 kcal/mol|
 --------------------------------------------------------

-------------------
GIBBS FREE ENERGY

                             ****ORCA TERMINATED NORMALLY****
TOTAL RUN TIME: 0 days 2 hours 34 minutes 22 seconds 683 msec
