                         Program Version 5.0.4 -  RELEASE  -
|  1> !MP2 6-31G COPT NUMFREQ SOSCF TIGHTSCF
|  2>
|  3> %scf
|  4> maxIter 500
|  5> convergence loose
|  6> end
|  7>
|  8> %geom
|  9> maxIter 2000
| 10> convergence loose
| 11> end
| 12>
| 13> * xyz 1 1
| 14>   C   -3.20102000000000      2.61416000000000     -0.88321000000000
| 15>   C   -4.33831000000000      1.81781000000000     -1.20132000000000
| 16>   C   -4.16481000000000      0.67999000000000     -1.94570000000000
| 17>   C   -2.90791000000000      0.27299000000000     -2.41562000000000
| 18>   C   -1.78185000000000      1.05882000000000     -2.10948000000000
| 19>   C   -1.92736000000000      2.19974000000000     -1.34732000000000
| 20>   C   -3.37707000000000      3.85078000000000     -0.08242000000000
| 21>   H   -2.82053000000000     -0.63567000000000     -2.99403000000000
| 22>   H   -5.32258000000000      2.10248000000000     -0.85213000000000
| 23>   H   -2.41818000000000      4.29649000000000      0.18650000000000
| 24>   H   -3.92782000000000      3.65638000000000      0.84469000000000
| 25>   H   -3.94495000000000      4.60609000000000     -0.63560000000000
| 26>   H   -1.06267000000000      2.80352000000000     -1.09742000000000
| 27>   H   -0.80714000000000      0.75105000000000     -2.46862000000000
| 28>   N   -5.33525000000000     -0.18868000000000     -2.22017000000000
| 29>   O   -5.08988000000000     -1.30597000000000     -2.64712000000000
| 30>   O   -6.43793000000000      0.26548000000000     -1.98332000000000
| 31>   H   -14.91699000000000     -0.92146000000000      7.41375000000000
| 32> *
| 33>
| 34>                          ****END OF INPUT****
 Total Charge           Charge          ....    1
 Multiplicity           Mult            ....    1
 Number of Electrons    NEL             ....   72
MP2 TOTAL ENERGY:     -473.995386665 Eh
FINAL SINGLE POINT ENERGY      -473.995386664872
MP2 TOTAL ENERGY:     -474.007172080 Eh
FINAL SINGLE POINT ENERGY      -474.007172080412
MP2 TOTAL ENERGY:     -474.008162146 Eh
FINAL SINGLE POINT ENERGY      -474.008162145743
MP2 TOTAL ENERGY:     -474.008807195 Eh
FINAL SINGLE POINT ENERGY      -474.008807195070
MP2 TOTAL ENERGY:     -474.009192901 Eh
FINAL SINGLE POINT ENERGY      -474.009192901214
MP2 TOTAL ENERGY:     -474.009457918 Eh
FINAL SINGLE POINT ENERGY      -474.009457918334
FINAL SINGLE POINT ENERGY      -474.009608978951
MP2 TOTAL ENERGY:     -474.009715521 Eh
FINAL SINGLE POINT ENERGY      -474.009715521099
MP2 TOTAL ENERGY:     -474.009814199 Eh
FINAL SINGLE POINT ENERGY      -474.009814199266
MP2 TOTAL ENERGY:     -474.009882291 Eh
FINAL SINGLE POINT ENERGY      -474.009882291270
MP2 TOTAL ENERGY:     -474.009955856 Eh
FINAL SINGLE POINT ENERGY      -474.009955856230
MP2 TOTAL ENERGY:     -474.009964374 Eh
FINAL SINGLE POINT ENERGY      -474.009964374327
                    ***********************HURRAY********************

CARTESIAN COORDINATES (ANGSTROEM)
---------------------------------
  C     -3.195736    2.627377   -0.878080
  C     -4.321235    1.827443   -1.188237
  C     -4.143425    0.659814   -1.947128
  C     -2.886968    0.250668   -2.429887
  C     -1.769980    1.051662   -2.116940
  C     -1.920116    2.224813   -1.343049
  C     -3.379455    3.896325   -0.057964
  H     -2.797239   -0.661883   -3.014543
  H     -5.316923    2.110215   -0.846896
  H     -2.408669    4.332817    0.211197
  H     -3.927486    3.688634    0.872031
  H     -3.947536    4.651820   -0.619474
  H     -1.044079    2.827336   -1.092864
  H     -0.782873    0.755284   -2.472478
  N     -5.329222   -0.197775   -2.223515
  O     -5.127407   -1.382031   -2.679838
  O     -6.496861    0.281675   -1.980769
  H    -14.915270   -0.924174    7.410723

 Multiplicity           Mult            ....    1
 Number of Electrons    NEL             ....   72
 Basis Dimension        Dim             ....  106

ORBITAL ENERGIES
----------------

  NO   OCC          E(Eh)            E(eV)
   0   2.0000     -20.659404      -562.1710
   1   2.0000     -20.658041      -562.1339
   2   2.0000     -15.887894      -432.3316
   3   2.0000     -11.368491      -309.3524
   4   2.0000     -11.325674      -308.1873
   5   2.0000     -11.324413      -308.1530
   6   2.0000     -11.324170      -308.1463
   7   2.0000     -11.319244      -308.0123
   8   2.0000     -11.314796      -307.8912
   9   2.0000     -11.288856      -307.1854
  10   2.0000      -1.609926       -43.8083
  11   2.0000      -1.412813       -38.4446
  12   2.0000      -1.236324       -33.6421
  13   2.0000      -1.139547       -31.0086
  14   2.0000      -1.103634       -30.0314
  15   2.0000      -1.009827       -27.4788
  16   2.0000      -0.995991       -27.1023
  17   2.0000      -0.887770       -24.1575
  18   2.0000      -0.852446       -23.1962
  19   2.0000      -0.793803       -21.6005
  20   2.0000      -0.743586       -20.2340
  21   2.0000      -0.740521       -20.1506
  22   2.0000      -0.730599       -19.8806
  23   2.0000      -0.693864       -18.8810
  24   2.0000      -0.672953       -18.3120
  25   2.0000      -0.641129       -17.4460
  26   2.0000      -0.633607       -17.2413
  27   2.0000      -0.601859       -16.3774
  28   2.0000      -0.580046       -15.7839
  29   2.0000      -0.556547       -15.1444
  30   2.0000      -0.555265       -15.1095
  31   2.0000      -0.528375       -14.3778
  32   2.0000      -0.526305       -14.3215
  33   2.0000      -0.475110       -12.9284
  34   2.0000      -0.412009       -11.2113
  35   2.0000      -0.392838       -10.6897
  36   0.0000      -0.496509       -13.5107
  37   0.0000      -0.015753        -0.4287
  38   0.0000       0.070032         1.9057
  39   0.0000       0.106243         2.8910
  40   0.0000       0.177385         4.8269

MULLIKEN ATOMIC CHARGES
-----------------------
   0 C :    0.047711
   1 C :   -0.159498
   2 C :    0.271838
   3 C :   -0.145157
   4 C :   -0.154515
   5 C :   -0.155655
   6 C :   -0.468768
   7 H :    0.212770
   8 H :    0.201863
   9 H :    0.157763
  10 H :    0.159315
  11 H :    0.169889
  12 H :    0.169270
  13 H :    0.176758
  14 N :    0.059091
  15 O :   -0.266394
  16 O :   -0.276282
  17 H :    1.000000
Sum of atomic charges:    1.0000000

LOEWDIN ATOMIC CHARGES
----------------------
   0 C :    0.003940
   1 C :   -0.121390
   2 C :    0.015374
   3 C :   -0.117661
   4 C :   -0.086287
   5 C :   -0.115191
   6 C :   -0.303051
   7 H :    0.146197
   8 H :    0.139937
   9 H :    0.118593
  10 H :    0.120495
  11 H :    0.125821
  12 H :    0.123393
  13 H :    0.129146
  14 N :    0.285966
  15 O :   -0.227631
  16 O :   -0.237652
  17 H :    1.000000

  Mayer bond orders larger than 0.100000
B(  0-C ,  1-C ) :   1.2998 B(  0-C ,  5-C ) :   1.3448 B(  0-C ,  6-C ) :   0.8932
B(  1-C ,  2-C ) :   1.3397 B(  1-C ,  8-H ) :   0.8883 B(  2-C ,  3-C ) :   1.3305
B(  2-C , 14-N ) :   0.5212 B(  3-C ,  4-C ) :   1.3382 B(  3-C ,  7-H ) :   0.8859
B(  4-C ,  5-C ) :   1.3398 B(  4-C , 13-H ) :   0.9034 B(  5-C , 12-H ) :   0.9055
B(  6-C ,  9-H ) :   0.9249 B(  6-C , 10-H ) :   0.9203 B(  6-C , 11-H ) :   0.9159
B( 14-N , 15-O ) :   1.2567 B( 14-N , 16-O ) :   1.2528 B( 15-O , 16-O ) :   0.2786

MP2 TOTAL ENERGY:     -474.009982895 Eh
FINAL SINGLE POINT ENERGY      -474.009982894674

DIPOLE MOMENT
-------------
                                X             Y             Z
Electronic contribution:    -16.25659     -10.27619       4.86919
Nuclear contribution   :     -2.83760       7.69416      12.61488
                        -----------------------------------------
Total Dipole Moment    :    -19.09418      -2.58203      17.48407
                        -----------------------------------------
Magnitude (a.u.)       :     26.01821
Magnitude (Debye)      :     66.13304

VIBRATIONAL FREQUENCIES
-----------------------

Scaling factor for frequencies =  1.000000000 (already applied!)

   0:         0.00 cm**-1
   1:         0.00 cm**-1
   2:         0.00 cm**-1
   3:         0.00 cm**-1
   4:         0.00 cm**-1
   5:         0.00 cm**-1
   6:     -1518.88 cm**-1 ***imaginary mode***
   7:      -519.79 cm**-1 ***imaginary mode***
   8:      -396.85 cm**-1 ***imaginary mode***
   9:      -175.58 cm**-1 ***imaginary mode***
  10:      -140.93 cm**-1 ***imaginary mode***
  11:       -67.64 cm**-1 ***imaginary mode***
  12:       -66.49 cm**-1 ***imaginary mode***
  13:        24.40 cm**-1
  14:       111.91 cm**-1
  15:       179.11 cm**-1
  16:       274.50 cm**-1
  17:       321.80 cm**-1
  18:       353.56 cm**-1
  19:       403.74 cm**-1
  20:       478.77 cm**-1
  21:       501.00 cm**-1
  22:       608.29 cm**-1
  23:       648.89 cm**-1
  24:       696.44 cm**-1
  25:       738.22 cm**-1
  26:       762.08 cm**-1
  27:       810.12 cm**-1
  28:       858.27 cm**-1
  29:       924.04 cm**-1
  30:       945.27 cm**-1
  31:       979.37 cm**-1
  32:      1022.29 cm**-1
  33:      1066.78 cm**-1
  34:      1147.18 cm**-1
  35:      1158.49 cm**-1
  36:      1210.14 cm**-1
  37:      1263.07 cm**-1
  38:      1296.12 cm**-1
  39:      1356.26 cm**-1
  40:      1370.26 cm**-1
  41:      1470.50 cm**-1
  42:      1474.23 cm**-1
  43:      1511.47 cm**-1
  44:      1642.69 cm**-1
  45:      1846.47 cm**-1
  46:      1986.22 cm**-1
  47:      3010.70 cm**-1
  48:      3089.13 cm**-1
  49:      3160.08 cm**-1
  50:      3206.58 cm**-1
  51:      3222.86 cm**-1
  52:      3228.88 cm**-1
  53:      3261.08 cm**-1

IR SPECTRUM
-----------

 Mode   freq       eps      Int      T**2         TX        TY        TZ
       cm**-1   L/(mol*cm) km/mol    a.u.
----------------------------------------------------------------------------
 13:     24.40   0.132746  670.85  1.697857  ( 0.301996  0.991920  0.789146)
 14:    111.91   0.036235  183.12  0.101039  ( 0.165268 -0.216699  0.163605)
 15:    179.11   0.001927    9.74  0.003358  (-0.056431 -0.005816 -0.011820)
 16:    274.50   0.001155    5.84  0.001313  ( 0.000040  0.017771  0.031578)
 17:    321.80   0.008468   42.80  0.008212  (-0.068696 -0.051343 -0.029271)
 18:    353.56   0.001511    7.64  0.001334  ( 0.025765  0.025606 -0.003775)
 19:    403.74   0.006039   30.52  0.004667  (-0.061626 -0.028422 -0.007861)
 20:    478.77   0.000343    1.73  0.000223  ( 0.013464 -0.006462 -0.000660)
 21:    501.00   0.014772   74.65  0.009201  (-0.035324 -0.076132 -0.046448)
 22:    608.29   0.001214    6.14  0.000623  (-0.016118 -0.009103 -0.016739)
 23:    648.89   0.007947   40.16  0.003822  ( 0.001252  0.039594 -0.047462)
 24:    696.44   0.003728   18.84  0.001671  ( 0.012672 -0.015274  0.035732)
 25:    738.22   0.004337   21.92  0.001833  (-0.024130  0.031024  0.016987)
 26:    762.08   0.022248  112.43  0.009110  (-0.002620 -0.079395 -0.052913)
 27:    810.12   0.001666    8.42  0.000642  (-0.019667  0.003532 -0.015572)
 28:    858.27   0.013481   68.13  0.004902  ( 0.034923 -0.053841 -0.027985)
 29:    924.04   0.007707   38.95  0.002603  (-0.002419  0.029179 -0.041780)
 30:    945.27   0.001362    6.88  0.000450  (-0.012332 -0.002270 -0.017103)
 31:    979.37   0.006605   33.38  0.002105  (-0.019135 -0.035336 -0.022130)
 32:   1022.29   0.018512   93.55  0.005651  ( 0.012635 -0.063108 -0.038842)
 33:   1066.78   0.133531  674.81  0.039062  ( 0.001875  0.171209  0.098721)
 34:   1147.18   0.004868   24.60  0.001324  ( 0.016718  0.029630  0.012914)
 35:   1158.49   0.063730  322.06  0.017167  (-0.011675 -0.117002 -0.057802)
 36:   1210.14   0.023352  118.01  0.006022  (-0.047574  0.051295  0.033577)
 37:   1263.07   0.015380   77.73  0.003800  (-0.043349  0.033119  0.028705)
 38:   1296.12   0.004604   23.27  0.001109  (-0.032610 -0.006669 -0.000861)
 39:   1356.26   0.016625   84.01  0.003825  (-0.004833 -0.060089  0.013825)
 40:   1370.26   0.007405   37.42  0.001687  (-0.009802  0.030943  0.025159)
 41:   1470.50   0.065127  329.13  0.013821  (-0.059969 -0.088115 -0.049604)
 42:   1474.23   0.004083   20.63  0.000864  (-0.005980  0.019477  0.021192)
 43:   1511.47   0.018743   94.72  0.003870  ( 0.035122 -0.044071 -0.026342)
 44:   1642.69   0.044202  223.38  0.008397  ( 0.083260  0.037832  0.005804)
 45:   1846.47   0.122910  621.14  0.020772  ( 0.057917  0.122835  0.048266)
 46:   1986.22   0.107597  543.75  0.016905  (-0.129183 -0.003655  0.014257)
 47:   3010.70   0.262374  1325.93  0.027196  (-0.005418  0.144188  0.079849)
 48:   3089.13   0.025999  131.39  0.002626  (-0.001406  0.031909 -0.040078)
 49:   3160.08   0.027520  139.07  0.002718  (-0.010657  0.044886  0.024275)
 50:   3206.58   0.004517   22.82  0.000440  (-0.017513 -0.010744 -0.004172)
 51:   3222.86   0.012864   65.01  0.001246  (-0.033603  0.006106  0.008895)
 52:   3228.88   0.005795   29.28  0.000560  ( 0.020255 -0.007686 -0.009523)
 53:   3261.08   0.010121   51.15  0.000968  ( 0.015961 -0.021910 -0.015286)

--------------------------
THERMOCHEMISTRY AT 298.15K
--------------------------

Temperature         ... 298.15 K
Pressure            ... 1.00 atm
Total Mass          ... 138.15 AMU

Throughout the following assumptions are being made:
  (1) The electronic state is orbitally nondegenerate
  (2) There are no thermally accessible electronically excited states
  (3) Hindered rotations indicated by low frequency modes are not
      treated as such but are treated as vibrations and this may
      cause some error
  (4) All equations used are the standard statistical mechanics
      equations for an ideal gas
  (5) All vibrations are strictly harmonic

freq.      24.40  E(vib)   ...       0.56
freq.     111.91  E(vib)   ...       0.45
freq.     179.11  E(vib)   ...       0.37
freq.     274.50  E(vib)   ...       0.28
freq.     321.80  E(vib)   ...       0.25
freq.     353.56  E(vib)   ...       0.22
freq.     403.74  E(vib)   ...       0.19
freq.     478.77  E(vib)   ...       0.15
freq.     501.00  E(vib)   ...       0.14
freq.     608.29  E(vib)   ...       0.10
freq.     648.89  E(vib)   ...       0.08
freq.     696.44  E(vib)   ...       0.07
freq.     738.22  E(vib)   ...       0.06
freq.     762.08  E(vib)   ...       0.06
freq.     810.12  E(vib)   ...       0.05
freq.     858.27  E(vib)   ...       0.04
freq.     924.04  E(vib)   ...       0.03
freq.     945.27  E(vib)   ...       0.03
freq.     979.37  E(vib)   ...       0.03
freq.    1022.29  E(vib)   ...       0.02
freq.    1066.78  E(vib)   ...       0.02
freq.    1147.18  E(vib)   ...       0.01
freq.    1158.49  E(vib)   ...       0.01
freq.    1210.14  E(vib)   ...       0.01
freq.    1263.07  E(vib)   ...       0.01
freq.    1296.12  E(vib)   ...       0.01
freq.    1356.26  E(vib)   ...       0.01
freq.    1370.26  E(vib)   ...       0.01
freq.    1470.50  E(vib)   ...       0.00
freq.    1474.23  E(vib)   ...       0.00
freq.    1511.47  E(vib)   ...       0.00
freq.    1642.69  E(vib)   ...       0.00
freq.    1846.47  E(vib)   ...       0.00
freq.    1986.22  E(vib)   ...       0.00
freq.    3010.70  E(vib)   ...       0.00
freq.    3089.13  E(vib)   ...       0.00
freq.    3160.08  E(vib)   ...       0.00
freq.    3206.58  E(vib)   ...       0.00
freq.    3222.86  E(vib)   ...       0.00
freq.    3228.88  E(vib)   ...       0.00
freq.    3261.08  E(vib)   ...       0.00

------------
INNER ENERGY
------------

The inner energy is: U= E(el) + E(ZPE) + E(vib) + E(rot) + E(trans)
    E(el)   - is the total energy from the electronic structure calculation
              = E(kin-el) + E(nuc-el) + E(el-el) + E(nuc-nuc)
    E(ZPE)  - the the zero temperature vibrational energy from the frequency calculation
    E(vib)  - the the finite temperature correction to E(ZPE) due to population
              of excited vibrational states
    E(rot)  - is the rotational thermal energy
    E(trans)- is the translational thermal energy

Summary of contributions to the inner energy U:
Electronic energy                ...   -474.00998232 Eh
Zero point energy                ...      0.12215814 Eh      76.66 kcal/mol
Thermal vibrational correction   ...      0.00521640 Eh       3.27 kcal/mol
Thermal rotational correction    ...      0.00141627 Eh       0.89 kcal/mol
Thermal translational correction ...      0.00141627 Eh       0.89 kcal/mol
-----------------------------------------------------------------------
Total thermal energy                   -473.87977523 Eh

Summary of corrections to the electronic energy:
(perhaps to be used in another calculation)
Total thermal correction                  0.00804895 Eh       5.05 kcal/mol
Non-thermal (ZPE) correction              0.12215814 Eh      76.66 kcal/mol
-----------------------------------------------------------------------
Total correction                          0.13020709 Eh      81.71 kcal/mol

--------
ENTHALPY
--------

The enthalpy is H = U + kB*T
                kB is Boltzmann's constant
Total free energy                 ...   -473.87977523 Eh
Thermal Enthalpy correction       ...      0.00094421 Eh       0.59 kcal/mol
-----------------------------------------------------------------------
Total Enthalpy                    ...   -473.87883103 Eh

Note: Only C1 symmetry has been detected, increase convergence thresholds
      if your molecule has a higher symmetry. Symmetry factor of 1.0 is
      used for the rotational entropy correction.

Note: Rotational entropy computed according to Herzberg
Infrared and Raman Spectra, Chapter V,1, Van Nostrand Reinhold, 1945
Point Group:  C1, Symmetry Number:   1
Rotational constants in cm-1:     0.046713     0.027909     0.018761

Vibrational entropy computed according to the QRRHO of S. Grimme
Chem.Eur.J. 2012 18 9955

-------
ENTROPY
-------

The entropy contributions are T*S = T*(S(el)+S(vib)+S(rot)+S(trans))
     S(el)   - electronic entropy
     S(vib)  - vibrational entropy
     S(rot)  - rotational entropy
     S(trans)- translational entropy
The entropies will be listed as multiplied by the temperature to get
units of energy

Electronic entropy                ...      0.00000000 Eh      0.00 kcal/mol
Vibrational entropy               ...      0.00892003 Eh      5.60 kcal/mol
Rotational entropy                ...      0.01452371 Eh      9.11 kcal/mol
Translational entropy             ...      0.01932890 Eh     12.13 kcal/mol
-----------------------------------------------------------------------
Final entropy term                ...      0.04277264 Eh     26.84 kcal/mol

In case the symmetry of your molecule has not been determined correctly
or in case you have a reason to use a different symmetry number we print
out the resulting rotational entropy values for sn=1,12 :
 --------------------------------------------------------
|  sn= 1 | S(rot)=       0.01452371 Eh      9.11 kcal/mol|
|  sn= 2 | S(rot)=       0.01386926 Eh      8.70 kcal/mol|
|  sn= 3 | S(rot)=       0.01348642 Eh      8.46 kcal/mol|
|  sn= 4 | S(rot)=       0.01321480 Eh      8.29 kcal/mol|
|  sn= 5 | S(rot)=       0.01300411 Eh      8.16 kcal/mol|
|  sn= 6 | S(rot)=       0.01283197 Eh      8.05 kcal/mol|
|  sn= 7 | S(rot)=       0.01268642 Eh      7.96 kcal/mol|
|  sn= 8 | S(rot)=       0.01256034 Eh      7.88 kcal/mol|
|  sn= 9 | S(rot)=       0.01244913 Eh      7.81 kcal/mol|
|  sn=10 | S(rot)=       0.01234965 Eh      7.75 kcal/mol|
|  sn=11 | S(rot)=       0.01225966 Eh      7.69 kcal/mol|
|  sn=12 | S(rot)=       0.01217751 Eh      7.64 kcal/mol|
 --------------------------------------------------------

-------------------
GIBBS FREE ENERGY
-------------------

The Gibbs free energy is G = H - T*S

Total enthalpy                    ...   -473.87883103 Eh

                             ****ORCA TERMINATED NORMALLY****
TOTAL RUN TIME: 0 days 8 hours 0 minutes 36 seconds 547 msec
