                         Program Version 5.0.4 -  RELEASE  -
|  1> !B3LYP DEF2-QZVPP
|  2>
|  3> %scf
|  4> smearTemp 5000
|  5> convergence tight
|  6> end
|  7>
|  8> * xyz 0 1
|  9>   C   -5.45725684070453      1.95593336212858     -0.00001817707546
| 10>   C   -6.54811022711722      1.08628615246483     -0.00001324749663
| 11>   C   -6.30396401004928     -0.28759056034773     -0.00000139831282
| 12>   C   -4.98984572580346     -0.76859455452417      0.00000695999258
| 13>   C   -3.91114170937565      0.12282314461918     -0.00000121662840
| 14>   C   -4.13915123157836      1.49943411470939     -0.00001304778994
| 15>   H   -7.55740354307554      1.49667400814645     -0.00001684062526
| 16>   H   -7.14404322624445     -0.98601755880687      0.00000397226961
| 17>   H   -4.80509894481999     -1.84567629943337      0.00002057733944
| 18>   H   -2.88642805442052     -0.25584437271434      0.00000437523983
| 19>   H   -3.32449720747170      2.22296833592123     -0.00001644865895
| 20>   N   -5.70656998714359      3.41332965011033     -0.00000742911383
| 21>   O   -6.86822400877657      3.78641654026404      0.00002696429634
| 22>   O   -4.73500528341910      4.15158803746246      0.00002495656351
| 23> **                         ****END OF INPUT****

CARTESIAN COORDINATES (ANGSTROEM)
---------------------------------
  C     -5.457257    1.955933   -0.000018
  C     -6.548110    1.086286   -0.000013
  C     -6.303964   -0.287591   -0.000001
  C     -4.989846   -0.768595    0.000007
  C     -3.911142    0.122823   -0.000001
  C     -4.139151    1.499434   -0.000013
  H     -7.557404    1.496674   -0.000017
  H     -7.144043   -0.986018    0.000004
  H     -4.805099   -1.845676    0.000021
  H     -2.886428   -0.255844    0.000004
  H     -3.324497    2.222968   -0.000016
  N     -5.706570    3.413330   -0.000007
  O     -6.868224    3.786417    0.000027
  O     -4.735005    4.151588    0.000025

 Total Charge           Charge          ....    0
 Multiplicity           Mult            ....    1
 Number of Electrons    NEL             ....   64
 Basis Dimension        Dim             ....  663

ORBITAL ENERGIES
----------------

  NO   OCC          E(Eh)            E(eV)
   0   2.0000     -19.163769      -521.4727
   1   2.0000     -19.163738      -521.4718
   2   2.0000     -14.558903      -396.1679
   3   2.0000     -10.248265      -278.8695
   4   2.0000     -10.213511      -277.9238
   5   2.0000     -10.213455      -277.9222
   6   2.0000     -10.212538      -277.8973
   7   2.0000     -10.209926      -277.8262
   8   2.0000     -10.209863      -277.8245
   9   2.0000      -1.237972       -33.6869
  10   2.0000      -1.064727       -28.9727
  11   2.0000      -0.896147       -24.3854
  12   2.0000      -0.812409       -22.1068
  13   2.0000      -0.778868       -21.1941
  14   2.0000      -0.707622       -19.2554
  15   2.0000      -0.638337       -17.3700
  16   2.0000      -0.603662       -16.4265
  17   2.0000      -0.571105       -15.5405
  18   2.0000      -0.544703       -14.8221
  19   2.0000      -0.523234       -14.2379
  20   2.0000      -0.516940       -14.0666
  21   2.0000      -0.479918       -13.0592
  22   2.0000      -0.471392       -12.8272
  23   2.0000      -0.453888       -12.3509
  24   2.0000      -0.400011       -10.8849
  25   2.0000      -0.396159       -10.7800
  26   2.0000      -0.377747       -10.2790
  27   1.9996      -0.323991        -8.8162
  28   1.9995      -0.319348        -8.6899
  29   1.9988      -0.304103        -8.2751
  30   1.9972      -0.291386        -7.9290
  31   1.9963      -0.286798        -7.8042
  32   0.0082      -0.100184        -2.7261
  33   0.0002      -0.043115        -1.1732
  34   0.0000      -0.014940        -0.4065
  35   0.0000       0.011575         0.3150
  36   0.0000       0.037083         1.0091
  37   0.0000       0.047032         1.2798
  38   0.0000       0.070773         1.9258

LOEWDIN ATOMIC CHARGES
----------------------
   0 C :   -0.187549
   1 C :    0.088492
   2 C :    0.076747
   3 C :    0.081831
   4 C :    0.076813
   5 C :    0.088340
   6 H :   -0.049154
   7 H :   -0.051109
   8 H :   -0.050310
   9 H :   -0.051151
  10 H :   -0.049140
  11 N :   -0.281472
  12 O :    0.153915
  13 O :    0.153749

  Mayer bond orders larger than 0.100000
B(  0-C ,  1-C ) :   1.2399 B(  0-C ,  5-C ) :   1.2411 B(  0-C , 11-N ) :   0.8843
B(  1-C ,  2-C ) :   1.3267 B(  1-C ,  6-H ) :   0.9487 B(  2-C ,  3-C ) :   1.3227
B(  2-C ,  7-H ) :   0.9673 B(  3-C ,  4-C ) :   1.3216 B(  3-C ,  8-H ) :   0.9658
B(  4-C ,  5-C ) :   1.3258 B(  4-C ,  9-H ) :   0.9675 B(  5-C , 10-H ) :   0.9489
B( 11-N , 12-O ) :   1.6135 B( 11-N , 13-O ) :   1.6136 B( 12-O , 13-O ) :   0.2380

FINAL SINGLE POINT ENERGY      -436.716314850964

DIPOLE MOMENT
-------------
                                X             Y             Z
Electronic contribution:     -1.00335       5.85478      -0.00001
Nuclear contribution   :      1.31383      -7.66954      -0.00001
                        -----------------------------------------
Total Dipole Moment    :      0.31047      -1.81476      -0.00003
                        -----------------------------------------
Magnitude (a.u.)       :      1.84113
Magnitude (Debye)      :      4.67978

Rotational constants in cm-1:     0.132276     0.042761     0.032315
Rotational constants in MHz :  3965.541854  1281.952840   968.774232

                             ****ORCA TERMINATED NORMALLY****
TOTAL RUN TIME: 0 days 0 hours 51 minutes 42 seconds 438 msec
