                         Program Version 5.0.4 -  RELEASE  -
|  1> !B3LYP DEF2-QZVPP
|  2>
|  3> %scf
|  4> smearTemp 5000
|  5> convergence tight
|  6> end
|  7>
|  8> * xyz 0 1
|  9>   C   -6.35529566713189      0.98183690763207     -0.00001504036478
| 10>   C   -7.70369862552641      0.57957456761231     -0.00000173744009
| 11>   C   -8.02102163499719     -0.77812943500883      0.00001944975110
| 12>   C   -7.00414212151022     -1.73832946214561      0.00002743447097
| 13>   C   -5.66330053841805     -1.34054476427431      0.00001396353728
| 14>   C   -5.33361031358612      0.01419348174697     -0.00000730718435
| 15>   C   -6.02185993035994      2.37866436898736     -0.00003589559077
| 16>   H   -8.49093284139212      1.33596053577513     -0.00000808213751
| 17>   H   -9.06839558616840     -1.08907636566259      0.00002985217797
| 18>   H   -7.25784524787421     -2.80130133697912      0.00004422468217
| 19>   H   -4.86880131166015     -2.09058333047744      0.00002017846662
| 20>   H   -4.28975746602226      0.33378924079070     -0.00001788378122
| 21>   N   -5.75052871535300      3.50757559200336     -0.00004915658739
| 22> **                         ****END OF INPUT****

CARTESIAN COORDINATES (ANGSTROEM)
---------------------------------
  C     -6.355296    0.981837   -0.000015
  C     -7.703699    0.579575   -0.000002
  C     -8.021022   -0.778129    0.000019
  C     -7.004142   -1.738329    0.000027
  C     -5.663301   -1.340545    0.000014
  C     -5.333610    0.014193   -0.000007
  C     -6.021860    2.378664   -0.000036
  H     -8.490933    1.335961   -0.000008
  H     -9.068396   -1.089076    0.000030
  H     -7.257845   -2.801301    0.000044
  H     -4.868801   -2.090583    0.000020
  H     -4.289757    0.333789   -0.000018
  N     -5.750529    3.507576   -0.000049

 Total Charge           Charge          ....    0
 Multiplicity           Mult            ....    1
 Number of Electrons    NEL             ....   54
 Basis Dimension        Dim             ....  606

ORBITAL ENERGIES
----------------

  NO   OCC          E(Eh)            E(eV)
   0   2.0000     -14.319772      -389.6608
   1   2.0000     -10.235118      -278.5117
   2   2.0000     -10.216726      -278.0113
   3   2.0000     -10.212886      -277.9068
   4   2.0000     -10.212875      -277.9064
   5   2.0000     -10.208632      -277.7910
   6   2.0000     -10.206725      -277.7391
   7   2.0000     -10.206639      -277.7368
   8   2.0000      -0.913020       -24.8445
   9   2.0000      -0.883001       -24.0277
  10   2.0000      -0.789960       -21.4959
  11   2.0000      -0.775675       -21.1072
  12   2.0000      -0.659298       -17.9404
  13   2.0000      -0.634959       -17.2781
  14   2.0000      -0.570615       -15.5272
  15   2.0000      -0.511309       -13.9134
  16   2.0000      -0.486685       -13.2434
  17   2.0000      -0.463685       -12.6175
  18   2.0000      -0.450244       -12.2518
  19   2.0000      -0.413236       -11.2447
  20   2.0000      -0.391091       -10.6421
  21   2.0000      -0.379374       -10.3233
  22   2.0000      -0.366126        -9.9628
  23   2.0000      -0.356696        -9.7062
  24   2.0000      -0.339340        -9.2339
  25   1.9987      -0.285148        -7.7593
  26   1.9977      -0.276000        -7.5104
  27   0.0029      -0.065550        -1.7837
  28   0.0007      -0.041636        -1.1330
  29   0.0000       0.009400         0.2558
  30   0.0000       0.023299         0.6340
  31   0.0000       0.035424         0.9639
  32   0.0000       0.040225         1.0946
  33   0.0000       0.058271         1.5856

LOEWDIN ATOMIC CHARGES
----------------------
   0 C :   -0.149786
   1 C :    0.102327
   2 C :    0.074561
   3 C :    0.078248
   4 C :    0.074539
   5 C :    0.102417
   6 C :   -0.235442
   7 H :   -0.042488
   8 H :   -0.051113
   9 H :   -0.051382
  10 H :   -0.051055
  11 H :   -0.042523
  12 N :    0.191697

  Mayer bond orders larger than 0.100000
B(  0-C ,  1-C ) :   1.2339 B(  0-C ,  5-C ) :   1.2330 B(  0-C ,  6-C ) :   0.9085
B(  1-C ,  2-C ) :   1.3316 B(  1-C ,  7-H ) :   0.9574 B(  2-C ,  3-C ) :   1.3161
B(  2-C ,  8-H ) :   0.9664 B(  3-C ,  4-C ) :   1.3168 B(  3-C ,  9-H ) :   0.9652
B(  4-C ,  5-C ) :   1.3322 B(  4-C , 10-H ) :   0.9666 B(  5-C , 11-H ) :   0.9572
B(  6-C , 12-N ) :   2.9318

FINAL SINGLE POINT ENERGY      -324.435774515864

DIPOLE MOMENT
-------------
                                X             Y             Z
Electronic contribution:      1.02811       4.30883      -0.00007
Nuclear contribution   :     -1.46091      -6.11812       0.00009
                        -----------------------------------------
Total Dipole Moment    :     -0.43281      -1.80930       0.00002
                        -----------------------------------------
Magnitude (a.u.)       :      1.86034
Magnitude (Debye)      :      4.72862

Rotational constants in cm-1:     0.187863     0.051251     0.040266
Rotational constants in MHz :  5631.980927  1536.463194  1207.142200

                             ****ORCA TERMINATED NORMALLY****
TOTAL RUN TIME: 0 days 0 hours 52 minutes 30 seconds 315 msec
