                         Program Version 5.0.4 -  RELEASE  -
|  1> !B3LYP/G DEF2-SVP OPT FREQ D4 SOSCF
|  2>
|  3> %geom
|  4> convergence tight
|  5> maxIter 1000
|  6> end
|  7>
|  8> * xyz 1 1
|  9>    C       -5.63665        0.70431        4.02787
| 10>    C       -6.13702        1.51291        2.96756
| 11>    C       -6.11782        1.05904        1.66011
| 12>    C       -5.59747       -0.21764        1.37020
| 13>    C       -5.09798       -1.03282        2.40765
| 14>    C       -5.11794       -0.57714        3.71655
| 15>    C       -5.66702        1.20968        5.43044
| 16>    H       -5.23704        0.49201        6.14472
| 17>    H       -6.70700        1.43637        5.74022
| 18>    H       -5.11584        2.16719        5.50983
| 19>    H       -6.53917        2.50200        3.19959
| 20>    H       -6.50340        1.68541        0.85333
| 21>    H       -5.58032       -0.57812        0.33942
| 22>    H       -4.69626       -2.02111        2.17564
| 23>    H       -4.73218       -1.20465        4.52279
| 24>    N       -7.14939       -0.92815      -12.15844
| 25>    O       -6.53025       -0.71909      -11.20272
| 26>    O       -7.25199       -1.00004      -13.31020
| 27> **                         ****END OF INPUT****
 Total Charge           Charge          ....    1
 Multiplicity           Mult            ....    1
 Number of Electrons    NEL             ....   72
Dispersion correction           -0.021412696
FINAL SINGLE POINT ENERGY      -475.930002210574
Dispersion correction            ... Starting D4
Dispersion correction           -0.021420918
FINAL SINGLE POINT ENERGY      -475.945620114792
Dispersion correction            ... Starting D4
Dispersion correction           -0.021421602
FINAL SINGLE POINT ENERGY      -475.954807024955
Dispersion correction            ... Starting D4
FINAL SINGLE POINT ENERGY      -475.955968917220
FINAL SINGLE POINT ENERGY      -475.956075400538
FINAL SINGLE POINT ENERGY      -475.956050118438
FINAL SINGLE POINT ENERGY      -475.956075937280
FINAL SINGLE POINT ENERGY      -475.955692988376
FINAL SINGLE POINT ENERGY      -475.956077377701
FINAL SINGLE POINT ENERGY      -475.956078656351
FINAL SINGLE POINT ENERGY      -475.956091399850
FINAL SINGLE POINT ENERGY      -475.956091697098
FINAL SINGLE POINT ENERGY      -475.956092139856
FINAL SINGLE POINT ENERGY      -475.956092404484
FINAL SINGLE POINT ENERGY      -475.956092507898
FINAL SINGLE POINT ENERGY      -475.956092511299
FINAL SINGLE POINT ENERGY      -475.956091875106
Dispersion correction           -0.021408677
FINAL SINGLE POINT ENERGY      -475.956092461554
Dispersion correction            ... Starting D4
Dispersion correction           -0.021408670
FINAL SINGLE POINT ENERGY      -475.956092494120
Dispersion correction            ... Starting D4
                    ***********************HURRAY********************

CARTESIAN COORDINATES (ANGSTROEM)
---------------------------------
  C     -5.656697    0.693054    3.835333
  C     -6.157726    1.487039    2.790075
  C     -6.146093    1.031522    1.471203
  C     -5.630867   -0.233101    1.168363
  C     -5.129393   -1.033480    2.196488
  C     -5.143530   -0.572051    3.516277
  C     -5.676120    1.196965    5.256622
  H     -5.252671    0.459760    5.954118
  H     -6.704028    1.421370    5.586876
  H     -5.096330    2.129481    5.358226
  H     -6.563091    2.477647    3.016567
  H     -6.541640    1.667457    0.674637
  H     -5.620469   -0.591503    0.135791
  H     -4.723725   -2.023748    1.973494
  H     -4.748468   -1.206273    4.314680
  N     -6.874813   -0.805147  -11.284497
  O     -6.270654   -0.602208  -10.363511
  O     -7.478426   -1.006625  -12.206182

 Multiplicity           Mult            ....    1
 Number of Electrons    NEL             ....   72
 Basis Dimension        Dim             ....  180

ORBITAL ENERGIES
----------------

  NO   OCC          E(Eh)            E(eV)
   0   2.0000     -19.551455      -532.0221
   1   2.0000     -19.551340      -532.0190
   2   2.0000     -14.874381      -404.7525
   3   2.0000     -10.295071      -280.1431
   4   2.0000     -10.287458      -279.9360
   5   2.0000     -10.280429      -279.7447
   6   2.0000     -10.280024      -279.7337
   7   2.0000     -10.278831      -279.7012
   8   2.0000     -10.277246      -279.6581
   9   2.0000     -10.267093      -279.3818
  10   2.0000      -1.600944       -43.5639
  11   2.0000      -1.497739       -40.7555
  12   2.0000      -0.940900       -25.6032
  13   2.0000      -0.896679       -24.3999
  14   2.0000      -0.885416       -24.0934
  15   2.0000      -0.883909       -24.0524
  16   2.0000      -0.853727       -23.2311
  17   2.0000      -0.839130       -22.8339
  18   2.0000      -0.825278       -22.4570
  19   2.0000      -0.763088       -20.7647
  20   2.0000      -0.689039       -18.7497
  21   2.0000      -0.666461       -18.1353
  22   2.0000      -0.666457       -18.1352
  23   2.0000      -0.666260       -18.1299
  24   2.0000      -0.597172       -16.2499
  25   2.0000      -0.551087       -14.9958
  26   2.0000      -0.535144       -14.5620
  27   2.0000      -0.506715       -13.7884
  28   2.0000      -0.501118       -13.6361
  29   2.0000      -0.498848       -13.5743
  30   2.0000      -0.465031       -12.6541
  31   2.0000      -0.443907       -12.0793
  32   2.0000      -0.432727       -11.7751
  33   2.0000      -0.428285       -11.6542
  34   2.0000      -0.343232        -9.3398
  35   2.0000      -0.330780        -9.0010
  36   0.0000      -0.323213        -8.7951
  37   0.0000      -0.313445        -8.5293
  38   0.0000      -0.160161        -4.3582
  39   0.0000      -0.098380        -2.6771
  40   0.0000      -0.093847        -2.5537

MULLIKEN ATOMIC CHARGES
-----------------------
   0 C :   -0.034705
   1 C :    0.006463
   2 C :    0.029054
   3 C :    0.042618
   4 C :    0.032856
   5 C :    0.004112
   6 C :    0.072437
   7 H :    0.027512
   8 H :    0.050855
   9 H :    0.050980
  10 H :   -0.003107
  11 H :    0.004644
  12 H :    0.007217
  13 H :    0.008226
  14 H :   -0.001608
  15 N :    0.476062
  16 O :    0.111544
  17 O :    0.114841
Sum of atomic charges:    1.0000000

LOEWDIN ATOMIC CHARGES
----------------------
   0 C :    0.022488
   1 C :   -0.002773
   2 C :   -0.009579
   3 C :    0.018665
   4 C :   -0.002895
   5 C :   -0.009405
   6 C :   -0.038298
   7 H :    0.036745
   8 H :    0.049872
   9 H :    0.049888
  10 H :    0.035857
  11 H :    0.036285
  12 H :    0.036520
  13 H :    0.038176
  14 H :    0.036007
  15 N :    0.377384
  16 O :    0.161060
  17 O :    0.164003

  Mayer bond orders larger than 0.100000
B(  0-C ,  1-C ) :   1.3098 B(  0-C ,  5-C ) :   1.3394 B(  0-C ,  6-C ) :   1.0720
B(  1-C ,  2-C ) :   1.4276 B(  1-C , 10-H ) :   0.9912 B(  2-C ,  3-C ) :   1.3264
B(  2-C , 11-H ) :   0.9852 B(  3-C ,  4-C ) :   1.3280 B(  3-C , 12-H ) :   0.9868
B(  4-C ,  5-C ) :   1.4129 B(  4-C , 13-H ) :   0.9845 B(  5-C , 14-H ) :   0.9864
B(  6-C ,  7-H ) :   0.9597 B(  6-C ,  8-H ) :   0.9433 B(  6-C ,  9-H ) :   0.9433
B( 15-N , 16-O ) :   1.9227 B( 15-N , 17-O ) :   1.9243 B( 16-O , 17-O ) :   0.4301

Dispersion correction           -0.021408671
FINAL SINGLE POINT ENERGY      -475.978147588723

DIPOLE MOMENT
-------------
                                X             Y             Z
Electronic contribution:     -3.84675      -4.89848     -48.30210
Nuclear contribution   :      2.98140       4.13521      38.53358
                        -----------------------------------------
Total Dipole Moment    :     -0.86536      -0.76327      -9.76852
                        -----------------------------------------
Magnitude (a.u.)       :      9.83643
Magnitude (Debye)      :     25.00223

Dispersion correction in the Hessian             ... Starting D4

VIBRATIONAL FREQUENCIES
-----------------------

Scaling factor for frequencies =  1.000000000  (already applied!)

   0:         0.00 cm**-1
   1:         0.00 cm**-1
   2:         0.00 cm**-1
   3:         0.00 cm**-1
   4:         0.00 cm**-1
   5:         0.00 cm**-1
   6:      -658.00 cm**-1 ***imaginary mode***
   7:      -200.11 cm**-1 ***imaginary mode***
   8:      -193.15 cm**-1 ***imaginary mode***
   9:       -83.10 cm**-1 ***imaginary mode***
  10:       -29.21 cm**-1 ***imaginary mode***
  11:         3.76 cm**-1
  12:         8.03 cm**-1
  13:       204.11 cm**-1
  14:       347.23 cm**-1
  15:       378.83 cm**-1
  16:       405.33 cm**-1
  17:       461.36 cm**-1
  18:       519.67 cm**-1
  19:       564.75 cm**-1
  20:       679.19 cm**-1
  21:       757.12 cm**-1
  22:       798.15 cm**-1
  23:       849.46 cm**-1
  24:       932.74 cm**-1
  25:       984.08 cm**-1
  26:      1013.27 cm**-1
  27:      1017.09 cm**-1
  28:      1027.73 cm**-1
  29:      1037.51 cm**-1
  30:      1054.90 cm**-1
  31:      1099.07 cm**-1
  32:      1155.27 cm**-1
  33:      1197.18 cm**-1
  34:      1230.31 cm**-1
  35:      1327.81 cm**-1
  36:      1377.78 cm**-1
  37:      1399.65 cm**-1
  38:      1424.70 cm**-1
  39:      1442.84 cm**-1
  40:      1460.19 cm**-1
  41:      1467.24 cm**-1
  42:      1510.73 cm**-1
  43:      1523.38 cm**-1
  44:      1664.36 cm**-1
  45:      2597.60 cm**-1
  46:      3028.57 cm**-1
  47:      3096.44 cm**-1
  48:      3131.67 cm**-1
  49:      3172.50 cm**-1
  50:      3177.81 cm**-1
  51:      3185.29 cm**-1
  52:      3192.22 cm**-1
  53:      3201.73 cm**-1

IR SPECTRUM
-----------

 Mode   freq       eps      Int      T**2         TX        TY        TZ
       cm**-1   L/(mol*cm) km/mol    a.u.
----------------------------------------------------------------------------
 11:      3.76   0.000000    0.00  0.000000  ( 0.000000  0.000000  0.000000)
 12:      8.03   0.000049    0.25  0.001887  ( 0.035232  0.021096 -0.014149)
 13:    204.11   0.000267    1.35  0.000408  ( 0.018315  0.008106 -0.002662)
 14:    347.23   0.000352    1.78  0.000316  (-0.002258  0.009225  0.015034)
 15:    378.83   0.001838    9.29  0.001514  ( 0.022192 -0.031535 -0.005217)
 16:    405.33   0.000002    0.01  0.000001  (-0.000974 -0.000434  0.000161)
 17:    461.36   0.000776    3.92  0.000525  (-0.020791 -0.009154  0.002965)
 18:    519.67   0.013361   67.52  0.008023  (-0.008238 -0.005952 -0.088993)
 19:    564.75   0.000532    2.69  0.000294  ( 0.000378 -0.005021 -0.016388)
 20:    679.19   0.003628   18.33  0.001667  (-0.037089 -0.016376  0.004812)
 21:    757.12   0.007013   35.44  0.002891  ( 0.048774  0.021565 -0.006843)
 22:    798.15   0.008483   42.87  0.003317  (-0.006655 -0.000326 -0.057203)
 23:    849.46   0.000006    0.03  0.000002  (-0.001282 -0.000560  0.000257)
 24:    932.74   0.000005    0.02  0.000002  (-0.001105 -0.000502  0.000333)
 25:    984.08   0.025745  130.11  0.008164  ( 0.004825  0.014212  0.089100)
 26:   1013.27   0.000012    0.06  0.000004  ( 0.001726  0.000787 -0.000010)
 27:   1017.09   0.010820   54.68  0.003320  (-0.005486 -0.003235 -0.057265)
 28:   1027.73   0.000812    4.10  0.000246  ( 0.014257  0.006291 -0.001899)
 29:   1037.51   0.000584    2.95  0.000176  ( 0.012067  0.005332 -0.001295)
 30:   1054.90   0.006435   32.52  0.001904  (-0.004184 -0.002681 -0.043346)
 31:   1099.07   0.002063   10.43  0.000586  (-0.007101  0.019314  0.012744)
 32:   1155.27   0.002498   12.63  0.000675  (-0.002259 -0.002315 -0.025776)
 33:   1197.18   0.063077  318.77  0.016442  ( 0.010650  0.011344  0.127279)
 34:   1230.31   0.070970  358.65  0.018001  ( 0.009474  0.016030  0.132870)
 35:   1327.81   0.007373   37.26  0.001733  ( 0.003032  0.005098  0.041204)
 36:   1377.78   0.020373  102.96  0.004615  (-0.001095  0.021338  0.064483)
 37:   1399.65   0.007084   35.80  0.001579  ( 0.002823 -0.016165 -0.036196)
 38:   1424.70   0.025842  130.59  0.005660  (-0.007296 -0.004245 -0.074760)
 39:   1442.84   0.001833    9.26  0.000396  ( 0.018175  0.007990 -0.001511)
 40:   1460.19   1.706992  8626.44  0.364810  (-0.047122 -0.059350 -0.599222)
 41:   1467.24   0.523486  2645.48  0.111339  ( 0.035583  0.011219  0.331582)
 42:   1510.73   0.001194    6.03  0.000247  ( 0.006413 -0.012424  0.007152)
 43:   1523.38   0.008832   44.64  0.001809  ( 0.001197 -0.015824 -0.039465)
 44:   1664.36   0.148323  749.56  0.027810  ( 0.013155  0.016742  0.165399)
 45:   2597.60   0.067069  338.94  0.008057  (-0.050255 -0.016631 -0.072493)
 46:   3028.57   0.007236   36.57  0.000746  (-0.002184 -0.002482 -0.027104)
 47:   3096.44   0.000411    2.08  0.000041  ( 0.005841  0.002602 -0.000712)
 48:   3131.67   0.016154   81.63  0.001610  (-0.006091  0.002217 -0.039594)
 49:   3172.50   0.002105   10.64  0.000207  (-0.000031 -0.004039 -0.013812)
 50:   3177.81   0.000439    2.22  0.000043  (-0.001674  0.001912 -0.006052)
 51:   3185.29   0.006327   31.98  0.000620  (-0.000557 -0.005781 -0.024211)
 52:   3192.22   0.001409    7.12  0.000138  (-0.004917  0.009342 -0.005127)
 53:   3201.73   0.005566   28.13  0.000543  (-0.003287  0.001473 -0.023012)

--------------------------
THERMOCHEMISTRY AT 298.15K
--------------------------

Temperature         ... 298.15 K
Pressure            ... 1.00 atm
Total Mass          ... 138.15 AMU

Throughout the following assumptions are being made:
  (1) The electronic state is orbitally nondegenerate
  (2) There are no thermally accessible electronically excited states
  (3) Hindered rotations indicated by low frequency modes are not
      treated as such but are treated as vibrations and this may
      cause some error
  (4) All equations used are the standard statistical mechanics
      equations for an ideal gas
  (5) All vibrations are strictly harmonic

freq.       3.76  E(vib)   ...       0.59
freq.       8.03  E(vib)   ...       0.58
freq.     204.11  E(vib)   ...       0.35
freq.     347.23  E(vib)   ...       0.23
freq.     378.83  E(vib)   ...       0.21
freq.     405.33  E(vib)   ...       0.19
freq.     461.36  E(vib)   ...       0.16
freq.     519.67  E(vib)   ...       0.13
freq.     564.75  E(vib)   ...       0.11
freq.     679.19  E(vib)   ...       0.08
freq.     757.12  E(vib)   ...       0.06
freq.     798.15  E(vib)   ...       0.05
freq.     849.46  E(vib)   ...       0.04
freq.     932.74  E(vib)   ...       0.03
freq.     984.08  E(vib)   ...       0.02
freq.    1013.27  E(vib)   ...       0.02
freq.    1017.09  E(vib)   ...       0.02
freq.    1027.73  E(vib)   ...       0.02
freq.    1037.51  E(vib)   ...       0.02
freq.    1054.90  E(vib)   ...       0.02
freq.    1099.07  E(vib)   ...       0.02
freq.    1155.27  E(vib)   ...       0.01
freq.    1197.18  E(vib)   ...       0.01
freq.    1230.31  E(vib)   ...       0.01
freq.    1327.81  E(vib)   ...       0.01
freq.    1377.78  E(vib)   ...       0.01
freq.    1399.65  E(vib)   ...       0.00
freq.    1424.70  E(vib)   ...       0.00
freq.    1442.84  E(vib)   ...       0.00
freq.    1460.19  E(vib)   ...       0.00
freq.    1467.24  E(vib)   ...       0.00
freq.    1510.73  E(vib)   ...       0.00
freq.    1523.38  E(vib)   ...       0.00
freq.    1664.36  E(vib)   ...       0.00
freq.    2597.60  E(vib)   ...       0.00
freq.    3028.57  E(vib)   ...       0.00
freq.    3096.44  E(vib)   ...       0.00
freq.    3131.67  E(vib)   ...       0.00
freq.    3172.50  E(vib)   ...       0.00
freq.    3177.81  E(vib)   ...       0.00
freq.    3185.29  E(vib)   ...       0.00
freq.    3192.22  E(vib)   ...       0.00
freq.    3201.73  E(vib)   ...       0.00

------------
INNER ENERGY
------------

The inner energy is: U= E(el) + E(ZPE) + E(vib) + E(rot) + E(trans)
    E(el)   - is the total energy from the electronic structure calculation
              = E(kin-el) + E(nuc-el) + E(el-el) + E(nuc-nuc)
    E(ZPE)  - the the zero temperature vibrational energy from the frequency calculation
    E(vib)  - the the finite temperature correction to E(ZPE) due to population
              of excited vibrational states
    E(rot)  - is the rotational thermal energy
    E(trans)- is the translational thermal energy

Summary of contributions to the inner energy U:
Electronic energy                ...   -475.97814759 Eh
Zero point energy                ...      0.13693761 Eh      85.93 kcal/mol
Thermal vibrational correction   ...      0.00480681 Eh       3.02 kcal/mol
Thermal rotational correction    ...      0.00141627 Eh       0.89 kcal/mol
Thermal translational correction ...      0.00141627 Eh       0.89 kcal/mol
-----------------------------------------------------------------------
Total thermal energy                   -475.83357063 Eh

Summary of corrections to the electronic energy:
(perhaps to be used in another calculation)
Total thermal correction                  0.00763935 Eh       4.79 kcal/mol
Non-thermal (ZPE) correction              0.13693761 Eh      85.93 kcal/mol
-----------------------------------------------------------------------
Total correction                          0.14457696 Eh      90.72 kcal/mol

--------
ENTHALPY
--------

The enthalpy is H = U + kB*T
                kB is Boltzmann's constant
Total free energy                 ...   -475.83357063 Eh
Thermal Enthalpy correction       ...      0.00094421 Eh       0.59 kcal/mol
-----------------------------------------------------------------------
Total Enthalpy                    ...   -475.83262642 Eh

Note: Only C1 symmetry has been detected, increase convergence thresholds
      if your molecule has a higher symmetry. Symmetry factor of 1.0 is
      used for the rotational entropy correction.

Note: Rotational entropy computed according to Herzberg
Infrared and Raman Spectra, Chapter V,1, Van Nostrand Reinhold, 1945
Point Group:  C1, Symmetry Number:   1
Rotational constants in cm-1:     0.155026     0.002583     0.002549

Vibrational entropy computed according to the QRRHO of S. Grimme
Chem.Eur.J. 2012 18 9955

-------
ENTROPY
-------

The entropy contributions are T*S = T*(S(el)+S(vib)+S(rot)+S(trans))
     S(el)   - electronic entropy
     S(vib)  - vibrational entropy
     S(rot)  - rotational entropy
     S(trans)- translational entropy
The entropies will be listed as multiplied by the temperature to get
units of energy

Electronic entropy                ...      0.00000000 Eh      0.00 kcal/mol
Vibrational entropy               ...      0.00977498 Eh      6.13 kcal/mol
Rotational entropy                ...      0.01602331 Eh     10.05 kcal/mol
Translational entropy             ...      0.01932890 Eh     12.13 kcal/mol
-----------------------------------------------------------------------
Final entropy term                ...      0.04512719 Eh     28.32 kcal/mol

In case the symmetry of your molecule has not been determined correctly
or in case you have a reason to use a different symmetry number we print
out the resulting rotational entropy values for sn=1,12 :
 --------------------------------------------------------
|  sn= 1 | S(rot)=       0.01602331 Eh     10.05 kcal/mol|
|  sn= 2 | S(rot)=       0.01536885 Eh      9.64 kcal/mol|
|  sn= 3 | S(rot)=       0.01498602 Eh      9.40 kcal/mol|
|  sn= 4 | S(rot)=       0.01471440 Eh      9.23 kcal/mol|
|  sn= 5 | S(rot)=       0.01450371 Eh      9.10 kcal/mol|
|  sn= 6 | S(rot)=       0.01433156 Eh      8.99 kcal/mol|
|  sn= 7 | S(rot)=       0.01418602 Eh      8.90 kcal/mol|
|  sn= 8 | S(rot)=       0.01405994 Eh      8.82 kcal/mol|
|  sn= 9 | S(rot)=       0.01394873 Eh      8.75 kcal/mol|
|  sn=10 | S(rot)=       0.01384925 Eh      8.69 kcal/mol|
|  sn=11 | S(rot)=       0.01375926 Eh      8.63 kcal/mol|
|  sn=12 | S(rot)=       0.01367711 Eh      8.58 kcal/mol|
 --------------------------------------------------------

-------------------
GIBBS FREE ENERGY
-------------------

The Gibbs free energy is G = H - T*S

                             ****ORCA TERMINATED NORMALLY****
TOTAL RUN TIME: 0 days 1 hours 43 minutes 45 seconds 927 msec
