                         Program Version 5.0.4 -  RELEASE  -
|  1> !B3LYP DEF2-SVP OPT FREQ D4 SOSCF
|  2>
|  3> %geom
|  4> convergence tight
|  5> maxIter 1000
|  6> end
|  7>
|  8> * xyz 1 1
|  9>   C   -5.76349080715420      0.98521230561200      0.00611570815311
| 10>   C   -6.80977734708061      1.44033696391529     -0.81722975531120
| 11>   C   -7.40423682992715      0.60457176844674     -1.75834779882496
| 12>   C   -6.94354787535904     -0.70830006417348     -1.87475127053803
| 13>   C   -5.91054260644691     -1.19638462157651     -1.07471253173775
| 14>   C   -5.32907317525022     -0.34337241510601     -0.13856712180674
| 15>   C   -5.11350758931673      1.91122552595715      0.99977598492968
| 16>   H   -4.56255906511459      1.35630348839485      1.77304014143319
| 17>   H   -5.85662682060077      2.55409540893717      1.49662932294595
| 18>   H   -4.39390962816746      2.57907157360829      0.49451314287056
| 19>   H   -7.16489415385142      2.46925659363940     -0.71558146182463
| 20>   H   -8.21616887383827      0.94552987142268     -2.39988496884517
| 21>   H   -5.58286396913981     -2.22863571501069     -1.19437881596011
| 22>   H   -4.52103428217861     -0.71705597489190      0.49546570580078
| 23>   N   -7.56796487578436     -1.60142094665224     -2.86330360973456
| 24>   O   -7.14737992315621     -2.74617844509739     -2.94274533968645
| 25>   O   -8.47271704477158     -1.14750568891816     -3.54889266684473
| 26>   H   -12.64851513286164     -7.53484962850717     -9.96335466501884
| 27> **                         ****END OF INPUT****
 Total Charge           Charge          ....    1
 Multiplicity           Mult            ....    1
 Number of Electrons    NEL             ....   72
Dispersion correction           -0.026442731
FINAL SINGLE POINT ENERGY      -475.485871822230
Dispersion correction            ... Starting D4
Dispersion correction           -0.026443400
FINAL SINGLE POINT ENERGY      -475.485942828784
Dispersion correction            ... Starting D4
Dispersion correction           -0.026443106
FINAL SINGLE POINT ENERGY      -475.486015336833
Dispersion correction            ... Starting D4
FINAL SINGLE POINT ENERGY      -475.486015399282
FINAL SINGLE POINT ENERGY      -475.486089794420
FINAL SINGLE POINT ENERGY      -475.486089678355
FINAL SINGLE POINT ENERGY      -475.486089619944
Dispersion correction           -0.026443024
FINAL SINGLE POINT ENERGY      -475.486089406978
Dispersion correction            ... Starting D4
Dispersion correction           -0.026443134
FINAL SINGLE POINT ENERGY      -475.486089483663
Dispersion correction            ... Starting D4
                    ***********************HURRAY********************

CARTESIAN COORDINATES (ANGSTROEM)
---------------------------------
  C     -5.771909    0.977230   -0.004297
  C     -6.818433    1.430238   -0.828201
  C     -7.411483    0.592908   -1.768780
  C     -6.949073   -0.719300   -1.884093
  C     -5.915864   -1.205549   -1.083186
  C     -5.335946   -0.351055   -0.147639
  C     -5.122568    1.904685    0.988358
  H     -4.572936    1.350674    1.763227
  H     -5.865660    2.549309    1.482982
  H     -4.401870    2.570938    0.482548
  H     -7.175107    2.458731   -0.727732
  H     -8.223558    0.932352   -2.410935
  H     -5.586630   -2.237405   -1.201708
  H     -4.527730   -0.723080    0.487164
  N     -7.571377   -1.613679   -2.872739
  O     -7.148309   -2.757543   -2.952223
  O     -8.476699   -1.161628   -3.558905
  H    -12.533658   -7.375925   -9.790049

 Multiplicity           Mult            ....    1
 Number of Electrons    NEL             ....   72
 Basis Dimension        Dim             ....  180

ORBITAL ENERGIES
----------------

  NO   OCC          E(Eh)            E(eV)
   0   2.0000     -19.204263      -522.5746
   1   2.0000     -19.204213      -522.5732
   2   2.0000     -14.601421      -397.3249
   3   2.0000     -10.287958      -279.9496
   4   2.0000     -10.264100      -279.3004
   5   2.0000     -10.258969      -279.1607
   6   2.0000     -10.258903      -279.1590
   7   2.0000     -10.251820      -278.9662
   8   2.0000     -10.251797      -278.9656
   9   2.0000     -10.241495      -278.6852
  10   2.0000      -1.264318       -34.4038
  11   2.0000      -1.089552       -29.6482
  12   2.0000      -0.925860       -25.1939
  13   2.0000      -0.854343       -23.2479
  14   2.0000      -0.805344       -21.9145
  15   2.0000      -0.777700       -21.1623
  16   2.0000      -0.698631       -19.0107
  17   2.0000      -0.670327       -18.2405
  18   2.0000      -0.625795       -17.0288
  19   2.0000      -0.597986       -16.2720
  20   2.0000      -0.583194       -15.8695
  21   2.0000      -0.555497       -15.1159
  22   2.0000      -0.526167       -14.3177
  23   2.0000      -0.524694       -14.2776
  24   2.0000      -0.500905       -13.6303
  25   2.0000      -0.487411       -13.2631
  26   2.0000      -0.475894       -12.9497
  27   2.0000      -0.442124       -12.0308
  28   2.0000      -0.424044       -11.5388
  29   2.0000      -0.421725       -11.4757
  30   2.0000      -0.406293       -11.0558
  31   2.0000      -0.356277        -9.6948
  32   2.0000      -0.354144        -9.6367
  33   2.0000      -0.336835        -9.1658
  34   2.0000      -0.321165        -8.7393
  35   2.0000      -0.314905        -8.5690
  36   0.0000      -0.494611       -13.4590
  37   0.0000      -0.132057        -3.5935
  38   0.0000      -0.073058        -1.9880
  39   0.0000      -0.044347        -1.2067
  40   0.0000       0.013705         0.3729

MULLIKEN ATOMIC CHARGES
-----------------------
   0 C :   -0.015770
   1 C :   -0.010873
   2 C :   -0.007658
   3 C :    0.165693
   4 C :   -0.007166
   5 C :   -0.010424
   6 C :    0.074125
   7 H :    0.022708
   8 H :    0.031282
   9 H :    0.045501
  10 H :   -0.011948
  11 H :    0.003834
  12 H :    0.005033
  13 H :   -0.011276
  14 N :    0.232119
  15 O :   -0.251343
  16 O :   -0.253837
  17 H :    1.000000
Sum of atomic charges:    1.0000000

LOEWDIN ATOMIC CHARGES
----------------------
   0 C :    0.003224
   1 C :   -0.017779
   2 C :    0.000400
   3 C :   -0.033753
   4 C :    0.001433
   5 C :   -0.019198
   6 C :   -0.042179
   7 H :    0.034107
   8 H :    0.038001
   9 H :    0.045411
  10 H :    0.032783
  11 H :    0.040033
  12 H :    0.040638
  13 H :    0.032823
  14 N :    0.277157
  15 O :   -0.215443
  16 O :   -0.217657
  17 H :    1.000000

  Mayer bond orders larger than 0.100000
B(  0-C ,  1-C ) :   1.3620 B(  0-C ,  5-C ) :   1.3724 B(  0-C ,  6-C ) :   1.0679
B(  1-C ,  2-C ) :   1.3605 B(  1-C , 10-H ) :   0.9873 B(  2-C ,  3-C ) :   1.3641
B(  2-C , 11-H ) :   0.9837 B(  3-C ,  4-C ) :   1.3708 B(  3-C , 14-N ) :   0.8660
B(  4-C ,  5-C ) :   1.3509 B(  4-C , 12-H ) :   0.9837 B(  5-C , 13-H ) :   0.9850
B(  6-C ,  7-H ) :   0.9586 B(  6-C ,  8-H ) :   0.9558 B(  6-C ,  9-H ) :   0.9487
B( 14-N , 15-O ) :   1.5442 B( 14-N , 16-O ) :   1.5420 B( 15-O , 16-O ) :   0.2739

Dispersion correction           -0.026443170
FINAL SINGLE POINT ENERGY      -475.486089482020

DIPOLE MOMENT
-------------
                                X             Y             Z
Electronic contribution:    -10.86198     -14.27332     -16.23747
Nuclear contribution   :      0.85753       2.44678       2.11382
                        -----------------------------------------
Total Dipole Moment    :    -10.00446     -11.82655     -14.12364
                        -----------------------------------------
Magnitude (a.u.)       :     20.96267
Magnitude (Debye)      :     53.28288

Dispersion correction in the Hessian             ... Starting D4

VIBRATIONAL FREQUENCIES
-----------------------

Scaling factor for frequencies =  1.000000000  (already applied!)

   0:         0.00 cm**-1
   1:         0.00 cm**-1
   2:         0.00 cm**-1
   3:         0.00 cm**-1
   4:         0.00 cm**-1
   5:         0.00 cm**-1
   6:       -41.51 cm**-1 ***imaginary mode***
   7:         9.56 cm**-1
   8:        26.64 cm**-1
   9:        28.61 cm**-1
  10:        61.21 cm**-1
  11:       110.49 cm**-1
  12:       224.21 cm**-1
  13:       285.77 cm**-1
  14:       362.75 cm**-1
  15:       366.64 cm**-1
  16:       424.69 cm**-1
  17:       488.61 cm**-1
  18:       541.54 cm**-1
  19:       632.40 cm**-1
  20:       645.89 cm**-1
  21:       709.26 cm**-1
  22:       756.29 cm**-1
  23:       806.71 cm**-1
  24:       858.00 cm**-1
  25:       859.93 cm**-1
  26:       889.09 cm**-1
  27:      1000.53 cm**-1
  28:      1002.91 cm**-1
  29:      1013.77 cm**-1
  30:      1027.22 cm**-1
  31:      1051.91 cm**-1
  32:      1121.56 cm**-1
  33:      1131.51 cm**-1
  34:      1193.71 cm**-1
  35:      1238.74 cm**-1
  36:      1310.05 cm**-1
  37:      1379.70 cm**-1
  38:      1396.09 cm**-1
  39:      1421.37 cm**-1
  40:      1434.02 cm**-1
  41:      1459.47 cm**-1
  42:      1470.15 cm**-1
  43:      1527.84 cm**-1
  44:      1631.69 cm**-1
  45:      1660.65 cm**-1
  46:      1688.58 cm**-1
  47:      3028.23 cm**-1
  48:      3100.06 cm**-1
  49:      3133.25 cm**-1
  50:      3182.89 cm**-1
  51:      3185.49 cm**-1
  52:      3233.09 cm**-1
  53:      3233.45 cm**-1

IR SPECTRUM
-----------

 Mode   freq       eps      Int      T**2         TX        TY        TZ
       cm**-1   L/(mol*cm) km/mol    a.u.
----------------------------------------------------------------------------
  7:      9.56   0.000005    0.03  0.000173  ( 0.002810  0.011822 -0.005055)
  8:     26.64   0.160852  812.88  1.883974  ( 0.768971 -1.087186  0.332693)
  9:     28.61   0.157851  797.71  1.721611  (-0.873234 -0.333269  0.920872)
 10:     61.21   0.000005    0.03  0.000028  (-0.003986  0.003388  0.000647)
 11:    110.49   0.000308    1.56  0.000871  ( 0.020492  0.007453 -0.019890)
 12:    224.21   0.000182    0.92  0.000253  (-0.010081  0.011627 -0.004080)
 13:    285.77   0.000815    4.12  0.000890  (-0.019232 -0.008696  0.021089)
 14:    362.75   0.000080    0.40  0.000068  (-0.006242  0.001686 -0.005160)
 15:    366.64   0.000267    1.35  0.000227  ( 0.004938  0.011002  0.009043)
 16:    424.69   0.000001    0.01  0.000001  ( 0.000060 -0.000743  0.000547)
 17:    488.61   0.001270    6.42  0.000811  ( 0.019745  0.009592 -0.018145)
 18:    541.54   0.000305    1.54  0.000176  (-0.007888  0.010126 -0.003302)
 19:    632.40   0.000845    4.27  0.000417  (-0.007330 -0.012503 -0.014392)
 20:    645.89   0.000106    0.54  0.000051  ( 0.004715 -0.004691  0.002663)
 21:    709.26   0.001164    5.88  0.000512  (-0.015415 -0.007047  0.015001)
 22:    756.29   0.006187   31.27  0.002553  (-0.033479 -0.014524  0.034944)
 23:    806.71   0.001270    6.42  0.000491  ( 0.008712  0.012738  0.015911)
 24:    858.00   0.000090    0.45  0.000033  ( 0.003508  0.000609 -0.004460)
 25:    859.93   0.002763   13.96  0.001003  (-0.018112 -0.005508  0.025382)
 26:    889.09   0.007590   38.36  0.002664  ( 0.022462  0.032031  0.033666)
 27:   1000.53   0.000351    1.77  0.000109  ( 0.007517  0.004729  0.005525)
 28:   1002.91   0.000478    2.42  0.000149  ( 0.009144  0.006616 -0.004624)
 29:   1013.77   0.000003    0.02  0.000001  (-0.000535  0.000376 -0.000754)
 30:   1027.22   0.000547    2.76  0.000166  (-0.004764 -0.006919 -0.009774)
 31:   1051.91   0.002363   11.94  0.000701  (-0.020056 -0.017275 -0.000488)
 32:   1121.56   0.002082   10.52  0.000579  (-0.012595  0.020180 -0.003665)
 33:   1131.51   0.010132   51.21  0.002794  (-0.022722 -0.031247 -0.036080)
 34:   1193.71   0.000039    0.20  0.000010  (-0.001279 -0.002165 -0.001967)
 35:   1238.74   0.000784    3.96  0.000198  ( 0.007254  0.009035  0.007959)
 36:   1310.05   0.000122    0.62  0.000029  (-0.002103  0.004961  0.000139)
 37:   1379.70   0.002019   10.20  0.000457  (-0.010021  0.018718 -0.002434)
 38:   1396.09   0.000102    0.52  0.000023  ( 0.003894  0.001195 -0.002510)
 39:   1421.37   0.074814  378.08  0.016425  (-0.055198 -0.077851 -0.085544)
 40:   1434.02   0.000138    0.70  0.000030  ( 0.001654  0.005116  0.001099)
 41:   1459.47   0.001472    7.44  0.000315  ( 0.012866  0.001089 -0.012166)
 42:   1470.15   0.001518    7.67  0.000322  ( 0.009253 -0.013214  0.007868)
 43:   1527.84   0.003187   16.10  0.000651  ( 0.010845  0.016156  0.016500)
 44:   1631.69   0.015229   76.96  0.002913  ( 0.033121 -0.039845  0.015097)
 45:   1660.65   0.007550   38.16  0.001419  (-0.016575 -0.022799 -0.024986)
 46:   1688.58   0.030264  152.94  0.005593  (-0.045730  0.055459 -0.020642)
 47:   3028.23   0.001813    9.16  0.000187  (-0.006965 -0.009140 -0.007401)
 48:   3100.06   0.001635    8.26  0.000165  (-0.004504  0.001260  0.011946)
 49:   3133.25   0.001476    7.46  0.000147  ( 0.008539 -0.006550  0.005583)
 50:   3182.89   0.001178    5.95  0.000115  ( 0.003492 -0.010106 -0.001071)
 51:   3185.49   0.001078    5.45  0.000106  ( 0.007465 -0.001434  0.006914)
 52:   3233.09   0.000367    1.86  0.000035  (-0.001143  0.005673  0.001397)
 53:   3233.45   0.000424    2.14  0.000041  ( 0.004109  0.001522  0.004663)

--------------------------
THERMOCHEMISTRY AT 298.15K
--------------------------

Temperature         ... 298.15 K
Pressure            ... 1.00 atm
Total Mass          ... 138.15 AMU

Throughout the following assumptions are being made:
  (1) The electronic state is orbitally nondegenerate
  (2) There are no thermally accessible electronically excited states
  (3) Hindered rotations indicated by low frequency modes are not
      treated as such but are treated as vibrations and this may
      cause some error
  (4) All equations used are the standard statistical mechanics
      equations for an ideal gas
  (5) All vibrations are strictly harmonic

freq.       9.56  E(vib)   ...       0.58
freq.      26.64  E(vib)   ...       0.56
freq.      28.61  E(vib)   ...       0.55
freq.      61.21  E(vib)   ...       0.51
freq.     110.49  E(vib)   ...       0.45
freq.     224.21  E(vib)   ...       0.33
freq.     285.77  E(vib)   ...       0.28
freq.     362.75  E(vib)   ...       0.22
freq.     366.64  E(vib)   ...       0.22
freq.     424.69  E(vib)   ...       0.18
freq.     488.61  E(vib)   ...       0.15
freq.     541.54  E(vib)   ...       0.12
freq.     632.40  E(vib)   ...       0.09
freq.     645.89  E(vib)   ...       0.09
freq.     709.26  E(vib)   ...       0.07
freq.     756.29  E(vib)   ...       0.06
freq.     806.71  E(vib)   ...       0.05
freq.     858.00  E(vib)   ...       0.04
freq.     859.93  E(vib)   ...       0.04
freq.     889.09  E(vib)   ...       0.04
freq.    1000.53  E(vib)   ...       0.02
freq.    1002.91  E(vib)   ...       0.02
freq.    1013.77  E(vib)   ...       0.02
freq.    1027.22  E(vib)   ...       0.02
freq.    1051.91  E(vib)   ...       0.02
freq.    1121.56  E(vib)   ...       0.01
freq.    1131.51  E(vib)   ...       0.01
freq.    1193.71  E(vib)   ...       0.01
freq.    1238.74  E(vib)   ...       0.01
freq.    1310.05  E(vib)   ...       0.01
freq.    1379.70  E(vib)   ...       0.01
freq.    1396.09  E(vib)   ...       0.00
freq.    1421.37  E(vib)   ...       0.00
freq.    1434.02  E(vib)   ...       0.00
freq.    1459.47  E(vib)   ...       0.00
freq.    1470.15  E(vib)   ...       0.00
freq.    1527.84  E(vib)   ...       0.00
freq.    1631.69  E(vib)   ...       0.00
freq.    1660.65  E(vib)   ...       0.00
freq.    1688.58  E(vib)   ...       0.00
freq.    3028.23  E(vib)   ...       0.00
freq.    3100.06  E(vib)   ...       0.00
freq.    3133.25  E(vib)   ...       0.00
freq.    3182.89  E(vib)   ...       0.00
freq.    3185.49  E(vib)   ...       0.00
freq.    3233.09  E(vib)   ...       0.00
freq.    3233.45  E(vib)   ...       0.00

------------
INNER ENERGY
------------

The inner energy is: U= E(el) + E(ZPE) + E(vib) + E(rot) + E(trans)
    E(el)   - is the total energy from the electronic structure calculation
              = E(kin-el) + E(nuc-el) + E(el-el) + E(nuc-nuc)
    E(ZPE)  - the the zero temperature vibrational energy from the frequency calculation
    E(vib)  - the the finite temperature correction to E(ZPE) due to population
              of excited vibrational states
    E(rot)  - is the rotational thermal energy
    E(trans)- is the translational thermal energy

Summary of contributions to the inner energy U:
Electronic energy                ...   -475.48608948 Eh
Zero point energy                ...      0.13064436 Eh      81.98 kcal/mol
Thermal vibrational correction   ...      0.00763106 Eh       4.79 kcal/mol
Thermal rotational correction    ...      0.00141627 Eh       0.89 kcal/mol
Thermal translational correction ...      0.00141627 Eh       0.89 kcal/mol
-----------------------------------------------------------------------
Total thermal energy                   -475.34498151 Eh

Summary of corrections to the electronic energy:
(perhaps to be used in another calculation)
Total thermal correction                  0.01046361 Eh       6.57 kcal/mol
Non-thermal (ZPE) correction              0.13064436 Eh      81.98 kcal/mol
-----------------------------------------------------------------------
Total correction                          0.14110797 Eh      88.55 kcal/mol

--------
ENTHALPY
--------

The enthalpy is H = U + kB*T
                kB is Boltzmann's constant
Total free energy                 ...   -475.34498151 Eh
Thermal Enthalpy correction       ...      0.00094421 Eh       0.59 kcal/mol
-----------------------------------------------------------------------
Total Enthalpy                    ...   -475.34403730 Eh

Note: Only C1 symmetry has been detected, increase convergence thresholds
      if your molecule has a higher symmetry. Symmetry factor of 1.0 is
      used for the rotational entropy correction.

Note: Rotational entropy computed according to Herzberg
Infrared and Raman Spectra, Chapter V,1, Van Nostrand Reinhold, 1945
Point Group:  C1, Symmetry Number:   1
Rotational constants in cm-1:     0.129169     0.021743     0.018678

Vibrational entropy computed according to the QRRHO of S. Grimme
Chem.Eur.J. 2012 18 9955

-------
ENTROPY
-------

The entropy contributions are T*S = T*(S(el)+S(vib)+S(rot)+S(trans))
     S(el)   - electronic entropy
     S(vib)  - vibrational entropy
     S(rot)  - rotational entropy
     S(trans)- translational entropy
The entropies will be listed as multiplied by the temperature to get
units of energy

Electronic entropy                ...      0.00000000 Eh      0.00 kcal/mol
Vibrational entropy               ...      0.01451597 Eh      9.11 kcal/mol
Rotational entropy                ...      0.01416349 Eh      8.89 kcal/mol
Translational entropy             ...      0.01932890 Eh     12.13 kcal/mol
-----------------------------------------------------------------------
Final entropy term                ...      0.04800836 Eh     30.13 kcal/mol

In case the symmetry of your molecule has not been determined correctly
or in case you have a reason to use a different symmetry number we print
out the resulting rotational entropy values for sn=1,12 :
 --------------------------------------------------------
|  sn= 1 | S(rot)=       0.01416349 Eh      8.89 kcal/mol|
|  sn= 2 | S(rot)=       0.01350903 Eh      8.48 kcal/mol|
|  sn= 3 | S(rot)=       0.01312620 Eh      8.24 kcal/mol|
|  sn= 4 | S(rot)=       0.01285458 Eh      8.07 kcal/mol|
|  sn= 5 | S(rot)=       0.01264389 Eh      7.93 kcal/mol|
|  sn= 6 | S(rot)=       0.01247174 Eh      7.83 kcal/mol|
|  sn= 7 | S(rot)=       0.01232620 Eh      7.73 kcal/mol|
|  sn= 8 | S(rot)=       0.01220012 Eh      7.66 kcal/mol|
|  sn= 9 | S(rot)=       0.01208891 Eh      7.59 kcal/mol|
|  sn=10 | S(rot)=       0.01198943 Eh      7.52 kcal/mol|
|  sn=11 | S(rot)=       0.01189944 Eh      7.47 kcal/mol|
|  sn=12 | S(rot)=       0.01181729 Eh      7.42 kcal/mol|
 --------------------------------------------------------

-------------------

                             ****ORCA TERMINATED NORMALLY****
TOTAL RUN TIME: 0 days 1 hours 16 minutes 56 seconds 796 msec
