                         Program Version 5.0.4 -  RELEASE  -
|  1> !B3LYP DEF2-SVP OPT FREQ D4 SOSCF
|  2>
|  3> %geom
|  4> optimizeHydrogens true
|  5> end
|  6>
|  7> * xyz 1 1
|  8>    C       -5.63856        0.97259        0.22218
|  9>    C       -6.64125        1.62526       -0.51066
| 10>    C       -7.28144        0.99945       -1.56030
| 11>    C       -6.91908       -0.30604       -1.88256
| 12>    C       -5.94160       -0.98320       -1.17742
| 13>    C       -5.30551       -0.33290       -0.12581
| 14>    C       -4.94261        1.70389        1.33537
| 15>    H       -4.55106        0.55213        2.34386
| 16>    H       -6.05533        2.77019        1.89952
| 17>    H       -3.70208        2.44177        0.60618
| 18>    H       -6.91828        2.64061       -0.24965
| 19>    H       -8.05266        1.49467       -2.13101
| 20>    H       -5.68704       -1.99561       -1.45248
| 21>    H       -4.53743       -0.85314        0.43145
| 22>    N       -7.59061       -0.97798       -3.00252
| 23>    O       -7.29614       -2.14297       -3.23103
| 24>    O       -8.40624       -0.33353       -3.64640
| 25>    H      -13.94189      -10.65329      -11.89493
| 26> **                         ****END OF INPUT****
 Total Charge           Charge          ....    1
 Multiplicity           Mult            ....    1
 Number of Electrons    NEL             ....   72
Dispersion correction           -0.028814159
FINAL SINGLE POINT ENERGY      -475.269947250024
Dispersion correction            ... Starting D4
Dispersion correction           -0.028372584
FINAL SINGLE POINT ENERGY      -475.318930394104
Dispersion correction            ... Starting D4
Dispersion correction           -0.027758054
FINAL SINGLE POINT ENERGY      -475.367027240194
Dispersion correction            ... Starting D4
FINAL SINGLE POINT ENERGY      -475.411980940865
FINAL SINGLE POINT ENERGY      -475.450551755030
FINAL SINGLE POINT ENERGY      -475.476949571156
FINAL SINGLE POINT ENERGY      -475.481479156955
FINAL SINGLE POINT ENERGY      -475.480692017555
FINAL SINGLE POINT ENERGY      -475.480612817595
FINAL SINGLE POINT ENERGY      -475.483156881451
FINAL SINGLE POINT ENERGY      -475.483552020265
FINAL SINGLE POINT ENERGY      -475.483588181015
FINAL SINGLE POINT ENERGY      -475.483624776749
FINAL SINGLE POINT ENERGY      -475.483658809654
FINAL SINGLE POINT ENERGY      -475.483690316494
FINAL SINGLE POINT ENERGY      -475.483722354689
FINAL SINGLE POINT ENERGY      -475.483723314979
Dispersion correction           -0.026553115
FINAL SINGLE POINT ENERGY      -475.483725197367
Dispersion correction            ... Starting D4
Dispersion correction           -0.026553065
FINAL SINGLE POINT ENERGY      -475.483726119302
Dispersion correction            ... Starting D4
                    ***********************HURRAY********************

CARTESIAN COORDINATES (ANGSTROEM)
---------------------------------
  C     -5.676952    0.992666    0.171778
  C     -6.676895    1.581444   -0.616812
  C     -7.289422    0.880461   -1.634976
  C     -6.901639   -0.436599   -1.868295
  C     -5.926052   -1.051971   -1.106203
  C     -5.318033   -0.326492   -0.087686
  C     -5.011381    1.803827    1.247591
  H     -4.335822    1.193710    1.864216
  H     -5.756162    2.268884    1.914036
  H     -4.418309    2.624273    0.808312
  H     -6.972985    2.616193   -0.423615
  H     -8.063376    1.325580   -2.259803
  H     -5.652440   -2.085259   -1.318043
  H     -4.541867   -0.802908    0.517074
  N     -7.543592   -1.188551   -2.954219
  O     -7.227435   -2.360625   -3.103949
  O     -8.357914   -0.599317   -3.650518
  H    -13.738533   -9.813418  -11.525099

 Multiplicity           Mult            ....    1
 Number of Electrons    NEL             ....   72
 Basis Dimension        Dim             ....  180

ORBITAL ENERGIES
----------------

  NO   OCC          E(Eh)            E(eV)
   0   2.0000     -19.192891      -522.2651
   1   2.0000     -19.192808      -522.2629
   2   2.0000     -14.590032      -397.0150
   3   2.0000     -10.277127      -279.6548
   4   2.0000     -10.253437      -279.0102
   5   2.0000     -10.248544      -278.8771
   6   2.0000     -10.247774      -278.8561
   7   2.0000     -10.241876      -278.6956
   8   2.0000     -10.241273      -278.6792
   9   2.0000     -10.233973      -278.4806
  10   2.0000      -1.252751       -34.0891
  11   2.0000      -1.077773       -29.3277
  12   2.0000      -0.920908       -25.0592
  13   2.0000      -0.847472       -23.0609
  14   2.0000      -0.798732       -21.7346
  15   2.0000      -0.770255       -20.9597
  16   2.0000      -0.690772       -18.7969
  17   2.0000      -0.662967       -18.0403
  18   2.0000      -0.618203       -16.8222
  19   2.0000      -0.587538       -15.9877
  20   2.0000      -0.572097       -15.5675
  21   2.0000      -0.545454       -14.8426
  22   2.0000      -0.517767       -14.0892
  23   2.0000      -0.516591       -14.0571
  24   2.0000      -0.492299       -13.3961
  25   2.0000      -0.479388       -13.0448
  26   2.0000      -0.469555       -12.7772
  27   2.0000      -0.434319       -11.8184
  28   2.0000      -0.416135       -11.3236
  29   2.0000      -0.415149       -11.2968
  30   2.0000      -0.397734       -10.8229
  31   2.0000      -0.344595        -9.3769
  32   2.0000      -0.342896        -9.3307
  33   2.0000      -0.325182        -8.8486
  34   2.0000      -0.313711        -8.5365
  35   2.0000      -0.307220        -8.3599
  36   0.0000      -0.496618       -13.5137
  37   0.0000      -0.121416        -3.3039
  38   0.0000      -0.063000        -1.7143
  39   0.0000      -0.033808        -0.9200
  40   0.0000       0.021012         0.5718

MULLIKEN ATOMIC CHARGES
-----------------------
   0 C :   -0.008610
   1 C :   -0.012560
   2 C :   -0.008364
   3 C :    0.176099
   4 C :   -0.014110
   5 C :   -0.012887
   6 C :    0.076459
   7 H :    0.016511
   8 H :    0.034439
   9 H :    0.040796
  10 H :   -0.014597
  11 H :    0.004140
  12 H :    0.003239
  13 H :   -0.014943
  14 N :    0.232085
  15 O :   -0.249796
  16 O :   -0.247900
  17 H :    1.000000
Sum of atomic charges:    1.0000000

LOEWDIN ATOMIC CHARGES
----------------------
   0 C :    0.000245
   1 C :   -0.017016
   2 C :   -0.000155
   3 C :   -0.032748
   4 C :    0.001565
   5 C :   -0.021457
   6 C :   -0.042291
   7 H :    0.031759
   8 H :    0.040020
   9 H :    0.043241
  10 H :    0.032457
  11 H :    0.040721
  12 H :    0.040662
  13 H :    0.032038
  14 N :    0.277688
  15 O :   -0.214483
  16 O :   -0.212246
  17 H :    1.000000

  Mayer bond orders larger than 0.100000
B(  0-C ,  1-C ) :   1.3497 B(  0-C ,  5-C ) :   1.3885 B(  0-C ,  6-C ) :   1.0663
B(  1-C ,  2-C ) :   1.3696 B(  1-C , 10-H ) :   0.9900 B(  2-C ,  3-C ) :   1.3553
B(  2-C , 11-H ) :   0.9855 B(  3-C ,  4-C ) :   1.3866 B(  3-C , 14-N ) :   0.8638
B(  4-C ,  5-C ) :   1.3313 B(  4-C , 12-H ) :   0.9856 B(  5-C , 13-H ) :   0.9860
B(  6-C ,  7-H ) :   0.9588 B(  6-C ,  8-H ) :   0.9533 B(  6-C ,  9-H ) :   0.9510
B( 14-N , 15-O ) :   1.5428 B( 14-N , 16-O ) :   1.5433 B( 15-O , 16-O ) :   0.2765

Dispersion correction           -0.026553656
FINAL SINGLE POINT ENERGY      -475.483726610515

DIPOLE MOMENT
-------------
                                X             Y             Z
Electronic contribution:    -12.33576     -15.88564     -18.77867
Nuclear contribution   :     -0.06487      -1.17484       1.38929
                        -----------------------------------------
Total Dipole Moment    :    -12.40063     -17.06047     -17.38939
                        -----------------------------------------
Magnitude (a.u.)       :     27.33544
Magnitude (Debye)      :     69.48115

Dispersion correction in the Hessian             ... Starting D4

VIBRATIONAL FREQUENCIES
-----------------------

Scaling factor for frequencies =  1.000000000  (already applied!)

   0:         0.00 cm**-1
   1:         0.00 cm**-1
   2:         0.00 cm**-1
   3:         0.00 cm**-1
   4:         0.00 cm**-1
   5:         0.00 cm**-1
   6:       -23.84 cm**-1 ***imaginary mode***
   7:       -14.78 cm**-1 ***imaginary mode***
   8:        -6.16 cm**-1 ***imaginary mode***
   9:        40.95 cm**-1
  10:        49.60 cm**-1
  11:       105.77 cm**-1
  12:       223.67 cm**-1
  13:       278.89 cm**-1
  14:       360.07 cm**-1
  15:       369.09 cm**-1
  16:       413.16 cm**-1
  17:       481.33 cm**-1
  18:       542.72 cm**-1
  19:       636.16 cm**-1
  20:       648.00 cm**-1
  21:       706.44 cm**-1
  22:       756.41 cm**-1
  23:       813.12 cm**-1
  24:       862.82 cm**-1
  25:       863.05 cm**-1
  26:       894.89 cm**-1
  27:      1002.11 cm**-1
  28:      1007.08 cm**-1
  29:      1019.30 cm**-1
  30:      1035.26 cm**-1
  31:      1054.72 cm**-1
  32:      1129.31 cm**-1
  33:      1141.91 cm**-1
  34:      1203.07 cm**-1
  35:      1249.93 cm**-1
  36:      1316.38 cm**-1
  37:      1397.70 cm**-1
  38:      1418.67 cm**-1
  39:      1422.78 cm**-1
  40:      1452.26 cm**-1
  41:      1457.74 cm**-1
  42:      1479.95 cm**-1
  43:      1544.61 cm**-1
  44:      1647.78 cm**-1
  45:      1693.51 cm**-1
  46:      1701.79 cm**-1
  47:      3028.43 cm**-1
  48:      3096.20 cm**-1
  49:      3130.93 cm**-1
  50:      3178.58 cm**-1
  51:      3181.32 cm**-1
  52:      3230.30 cm**-1
  53:      3230.89 cm**-1

IR SPECTRUM
-----------

 Mode   freq       eps      Int      T**2         TX        TY        TZ
       cm**-1   L/(mol*cm) km/mol    a.u.
----------------------------------------------------------------------------
  9:     40.95   0.003738   18.89  0.028486  (-0.149657  0.040896  0.066454)
 10:     49.60   0.002375   12.00  0.014945  ( 0.107349 -0.048662 -0.032451)
 11:    105.77   0.000759    3.84  0.002240  (-0.032872 -0.011366  0.032103)
 12:    223.67   0.000306    1.55  0.000427  (-0.012039  0.016159 -0.004554)
 13:    278.89   0.000968    4.89  0.001084  (-0.022961 -0.009615  0.021538)
 14:    360.07   0.000111    0.56  0.000096  (-0.006986  0.006087 -0.003197)
 15:    369.09   0.000307    1.55  0.000259  ( 0.005808  0.009643  0.011508)
 16:    413.16   0.000001    0.00  0.000001  (-0.000380 -0.000439  0.000562)
 17:    481.33   0.001208    6.11  0.000783  ( 0.018948  0.010128 -0.017939)
 18:    542.72   0.000313    1.58  0.000180  (-0.008654  0.010263 -0.000021)
 19:    636.16   0.000922    4.66  0.000452  (-0.008474 -0.011207 -0.015971)
 20:    648.00   0.000111    0.56  0.000053  ( 0.004695 -0.005386  0.001513)
 21:    706.44   0.000991    5.01  0.000438  ( 0.014494  0.006083 -0.013810)
 22:    756.41   0.006078   30.72  0.002508  (-0.035678 -0.015635  0.031466)
 23:    813.12   0.001427    7.21  0.000548  ( 0.010436  0.011219  0.017693)
 24:    862.82   0.000284    1.44  0.000103  (-0.007313 -0.003322  0.006182)
 25:    863.05   0.002654   13.41  0.000960  ( 0.019718  0.008030 -0.022502)
 26:    894.89   0.007640   38.61  0.002664  ( 0.022868  0.026980  0.037596)
 27:   1002.11   0.000805    4.07  0.000251  ( 0.009432  0.006752  0.010780)
 28:   1007.08   0.000414    2.09  0.000128  (-0.008714 -0.004269  0.005833)
 29:   1019.30   0.000031    0.16  0.000010  ( 0.000340 -0.000075 -0.003063)
 30:   1035.26   0.000743    3.75  0.000224  ( 0.006393  0.006851  0.011666)
 31:   1054.72   0.001271    6.42  0.000376  ( 0.015629  0.010266 -0.005144)
 32:   1129.31   0.002174   10.99  0.000601  (-0.012211  0.020926 -0.003713)
 33:   1141.91   0.008819   44.57  0.002410  ( 0.021805  0.024691  0.036402)
 34:   1203.07   0.000069    0.35  0.000018  (-0.000244 -0.003721 -0.002027)
 35:   1249.93   0.000654    3.31  0.000163  ( 0.006956  0.006024  0.008867)
 36:   1316.38   0.000113    0.57  0.000027  (-0.000325  0.004789  0.001940)
 37:   1397.70   0.000354    1.79  0.000079  (-0.001500  0.008722 -0.000841)
 38:   1418.67   0.013153   66.47  0.002893  (-0.011784 -0.040167 -0.033780)
 39:   1422.78   0.060158  304.01  0.013195  ( 0.054144  0.054361  0.085487)
 40:   1452.26   0.000383    1.94  0.000082  ( 0.003127  0.008013 -0.002890)
 41:   1457.74   0.001349    6.82  0.000289  (-0.011848 -0.001939  0.012025)
 42:   1479.95   0.001276    6.45  0.000269  ( 0.009540 -0.012503  0.004664)
 43:   1544.61   0.002795   14.12  0.000565  ( 0.008232  0.015759  0.015766)
 44:   1647.78   0.030178  152.51  0.005715  ( 0.039680 -0.061196  0.019896)
 45:   1693.51   0.007658   38.70  0.001411  ( 0.018882  0.016329  0.028071)
 46:   1701.79   0.014635   73.96  0.002684  (-0.025770  0.043345 -0.011869)
 47:   3028.43   0.002171   10.97  0.000224  (-0.006865 -0.008701 -0.010043)
 48:   3096.20   0.001455    7.35  0.000147  (-0.006872 -0.001681  0.009828)
 49:   3130.93   0.001902    9.61  0.000190  ( 0.009704 -0.006379  0.007397)
 50:   3178.58   0.001331    6.73  0.000131  ( 0.003271 -0.010790 -0.001886)
 51:   3181.32   0.001336    6.75  0.000131  ( 0.008097 -0.002673  0.007640)
 52:   3230.30   0.000361    1.83  0.000035  (-0.004028  0.000703 -0.004264)
 53:   3230.89   0.000419    2.12  0.000040  ( 0.000577  0.005402  0.003306)

--------------------------
THERMOCHEMISTRY AT 298.15K
--------------------------

Temperature         ... 298.15 K
Pressure            ... 1.00 atm
Total Mass          ... 138.15 AMU

Throughout the following assumptions are being made:
  (1) The electronic state is orbitally nondegenerate
  (2) There are no thermally accessible electronically excited states
  (3) Hindered rotations indicated by low frequency modes are not
      treated as such but are treated as vibrations and this may
      cause some error
  (4) All equations used are the standard statistical mechanics
      equations for an ideal gas
  (5) All vibrations are strictly harmonic

freq.      40.95  E(vib)   ...       0.54
freq.      49.60  E(vib)   ...       0.52
freq.     105.77  E(vib)   ...       0.45
freq.     223.67  E(vib)   ...       0.33
freq.     278.89  E(vib)   ...       0.28
freq.     360.07  E(vib)   ...       0.22
freq.     369.09  E(vib)   ...       0.21
freq.     413.16  E(vib)   ...       0.19
freq.     481.33  E(vib)   ...       0.15
freq.     542.72  E(vib)   ...       0.12
freq.     636.16  E(vib)   ...       0.09
freq.     648.00  E(vib)   ...       0.08
freq.     706.44  E(vib)   ...       0.07
freq.     756.41  E(vib)   ...       0.06
freq.     813.12  E(vib)   ...       0.05
freq.     862.82  E(vib)   ...       0.04
freq.     863.05  E(vib)   ...       0.04
freq.     894.89  E(vib)   ...       0.03
freq.    1002.11  E(vib)   ...       0.02
freq.    1007.08  E(vib)   ...       0.02
freq.    1019.30  E(vib)   ...       0.02
freq.    1035.26  E(vib)   ...       0.02
freq.    1054.72  E(vib)   ...       0.02
freq.    1129.31  E(vib)   ...       0.01
freq.    1141.91  E(vib)   ...       0.01
freq.    1203.07  E(vib)   ...       0.01
freq.    1249.93  E(vib)   ...       0.01
freq.    1316.38  E(vib)   ...       0.01
freq.    1397.70  E(vib)   ...       0.00
freq.    1418.67  E(vib)   ...       0.00
freq.    1422.78  E(vib)   ...       0.00
freq.    1452.26  E(vib)   ...       0.00
freq.    1457.74  E(vib)   ...       0.00
freq.    1479.95  E(vib)   ...       0.00
freq.    1544.61  E(vib)   ...       0.00
freq.    1647.78  E(vib)   ...       0.00
freq.    1693.51  E(vib)   ...       0.00
freq.    1701.79  E(vib)   ...       0.00
freq.    3028.43  E(vib)   ...       0.00
freq.    3096.20  E(vib)   ...       0.00
freq.    3130.93  E(vib)   ...       0.00
freq.    3178.58  E(vib)   ...       0.00
freq.    3181.32  E(vib)   ...       0.00
freq.    3230.30  E(vib)   ...       0.00
freq.    3230.89  E(vib)   ...       0.00

------------
INNER ENERGY
------------

The inner energy is: U= E(el) + E(ZPE) + E(vib) + E(rot) + E(trans)
    E(el)   - is the total energy from the electronic structure calculation
              = E(kin-el) + E(nuc-el) + E(el-el) + E(nuc-nuc)
    E(ZPE)  - the the zero temperature vibrational energy from the frequency calculation
    E(vib)  - the the finite temperature correction to E(ZPE) due to population
              of excited vibrational states
    E(rot)  - is the rotational thermal energy
    E(trans)- is the translational thermal energy

Summary of contributions to the inner energy U:
Electronic energy                ...   -475.48372661 Eh
Zero point energy                ...      0.13099156 Eh      82.20 kcal/mol
Thermal vibrational correction   ...      0.00584016 Eh       3.66 kcal/mol
Thermal rotational correction    ...      0.00141627 Eh       0.89 kcal/mol
Thermal translational correction ...      0.00141627 Eh       0.89 kcal/mol
-----------------------------------------------------------------------
Total thermal energy                   -475.34406235 Eh

Summary of corrections to the electronic energy:
(perhaps to be used in another calculation)
Total thermal correction                  0.00867270 Eh       5.44 kcal/mol
Non-thermal (ZPE) correction              0.13099156 Eh      82.20 kcal/mol
-----------------------------------------------------------------------
Total correction                          0.13966426 Eh      87.64 kcal/mol

--------
ENTHALPY
--------

The enthalpy is H = U + kB*T
                kB is Boltzmann's constant
Total free energy                 ...   -475.34406235 Eh
Thermal Enthalpy correction       ...      0.00094421 Eh       0.59 kcal/mol
-----------------------------------------------------------------------
Total Enthalpy                    ...   -475.34311814 Eh

Note: Only C1 symmetry has been detected, increase convergence thresholds
      if your molecule has a higher symmetry. Symmetry factor of 1.0 is
      used for the rotational entropy correction.

Note: Rotational entropy computed according to Herzberg
Infrared and Raman Spectra, Chapter V,1, Van Nostrand Reinhold, 1945
Point Group:  C1, Symmetry Number:   1
Rotational constants in cm-1:     0.127519     0.019514     0.017039

Vibrational entropy computed according to the QRRHO of S. Grimme
Chem.Eur.J. 2012 18 9955

-------
ENTROPY
-------

The entropy contributions are T*S = T*(S(el)+S(vib)+S(rot)+S(trans))
     S(el)   - electronic entropy
     S(vib)  - vibrational entropy
     S(rot)  - rotational entropy
     S(trans)- translational entropy
The entropies will be listed as multiplied by the temperature to get
units of energy

Electronic entropy                ...      0.00000000 Eh      0.00 kcal/mol
Vibrational entropy               ...      0.01003157 Eh      6.29 kcal/mol
Rotational entropy                ...      0.01426399 Eh      8.95 kcal/mol
Translational entropy             ...      0.01932890 Eh     12.13 kcal/mol
-----------------------------------------------------------------------
Final entropy term                ...      0.04362446 Eh     27.37 kcal/mol

In case the symmetry of your molecule has not been determined correctly
or in case you have a reason to use a different symmetry number we print
out the resulting rotational entropy values for sn=1,12 :
 --------------------------------------------------------
|  sn= 1 | S(rot)=       0.01426399 Eh      8.95 kcal/mol|
|  sn= 2 | S(rot)=       0.01360954 Eh      8.54 kcal/mol|
|  sn= 3 | S(rot)=       0.01322670 Eh      8.30 kcal/mol|
|  sn= 4 | S(rot)=       0.01295508 Eh      8.13 kcal/mol|
|  sn= 5 | S(rot)=       0.01274439 Eh      8.00 kcal/mol|
|  sn= 6 | S(rot)=       0.01257225 Eh      7.89 kcal/mol|
|  sn= 7 | S(rot)=       0.01242670 Eh      7.80 kcal/mol|
|  sn= 8 | S(rot)=       0.01230062 Eh      7.72 kcal/mol|
|  sn= 9 | S(rot)=       0.01218941 Eh      7.65 kcal/mol|
|  sn=10 | S(rot)=       0.01208993 Eh      7.59 kcal/mol|
|  sn=11 | S(rot)=       0.01199994 Eh      7.53 kcal/mol|
|  sn=12 | S(rot)=       0.01191779 Eh      7.48 kcal/mol|
 --------------------------------------------------------

-------------------
GIBBS FREE ENERGY
-------------------

                             ****ORCA TERMINATED NORMALLY****
TOTAL RUN TIME: 0 days 2 hours 30 minutes 31 seconds 4 msec
