                         Program Version 5.0.4 -  RELEASE  -
|  1> !B3LYP D3 DEF2-SVP KEEPDENS
|  2>
|  3> * xyz 1 2
|  4>   C   -2.22228878158883      3.02859625455643     -0.21035396487253
|  5>   C   -2.50830439779609      1.54791789780224      0.07602730919541
|  6>   O   -1.28019171891555      0.86292489456393     -0.19752365471928
|  7>   H   -3.29279866693753      1.11226368229766     -0.55882412139207
|  8>   H   -2.78129033761928      1.38083967617559      1.13343223202784
|  9>   C   -0.73508193412564      3.12413342164026      0.12809792804256
| 10>   H   -2.86397098602036      3.70229449871120      0.37527275872271
| 11>   H   -2.38623672040265      3.24574776644390     -1.27800975944110
| 12>   C   -0.21849123873636      1.71461968337449     -0.15303530810893
| 13>   H   -0.56392689440653      3.33449540230340      1.19850628759754
| 14>   H   -0.16145763230755      3.86205509865162     -0.44841287057201
| 15>   O   0.91007930885637      1.34911172347926     -0.30702683648014
| 16> **                         ****END OF INPUT****

CARTESIAN COORDINATES (ANGSTROEM)
---------------------------------
  C     -2.222289    3.028596   -0.210354
  C     -2.508304    1.547918    0.076027
  O     -1.280192    0.862925   -0.197524
  H     -3.292799    1.112264   -0.558824
  H     -2.781290    1.380840    1.133432
  C     -0.735082    3.124133    0.128098
  H     -2.863971    3.702294    0.375273
  H     -2.386237    3.245748   -1.278010
  C     -0.218491    1.714620   -0.153035
  H     -0.563927    3.334495    1.198506
  H     -0.161458    3.862055   -0.448413
  O      0.910079    1.349112   -0.307027

 Total Charge           Charge          ....    1
 Multiplicity           Mult            ....    2
 Number of Electrons    NEL             ....   45
 Basis Dimension        Dim             ....  114

ORBITAL ENERGIES
----------------
                 SPIN UP ORBITALS
  NO   OCC          E(Eh)            E(eV)
   0   1.0000     -19.503952      -530.7295
   1   1.0000     -19.445853      -529.1486
   2   1.0000     -10.601438      -288.4798
   3   1.0000     -10.457674      -284.5678
   4   1.0000     -10.456667      -284.5404
   5   1.0000     -10.413058      -283.3537
   6   1.0000      -1.408391       -38.3243
   7   1.0000      -1.319027       -35.8925
   8   1.0000      -1.035576       -28.1795
   9   1.0000      -0.965443       -26.2710
  10   1.0000      -0.865314       -23.5464
  11   1.0000      -0.806067       -21.9342
  12   1.0000      -0.770712       -20.9721
  13   1.0000      -0.766713       -20.8633
  14   1.0000      -0.731708       -19.9108
  15   1.0000      -0.690246       -18.7825
  16   1.0000      -0.686512       -18.6809
  17   1.0000      -0.657784       -17.8992
  18   1.0000      -0.612430       -16.6651
  19   1.0000      -0.609678       -16.5902
  20   1.0000      -0.587850       -15.9962
  21   1.0000      -0.576155       -15.6780
  22   1.0000      -0.537965       -14.6388
  23   0.0000      -0.270175        -7.3518
  24   0.0000      -0.134950        -3.6722
  25   0.0000      -0.101631        -2.7655
  26   0.0000      -0.098758        -2.6873
  27   0.0000      -0.077113        -2.0984

                 SPIN DOWN ORBITALS
  NO   OCC          E(Eh)            E(eV)
   0   1.0000     -19.483267      -530.1666
   1   1.0000     -19.442535      -529.0583
   2   1.0000     -10.602810      -288.5171
   3   1.0000     -10.457683      -284.5680
   4   1.0000     -10.453828      -284.4631
   5   1.0000     -10.412526      -283.3392
   6   1.0000      -1.377371       -37.4802
   7   1.0000      -1.300846       -35.3978
   8   1.0000      -1.027084       -27.9484
   9   1.0000      -0.956407       -26.0252
  10   1.0000      -0.851962       -23.1831
  11   1.0000      -0.789424       -21.4813
  12   1.0000      -0.756282       -20.5795
  13   1.0000      -0.754788       -20.5388
  14   1.0000      -0.714390       -19.4396
  15   1.0000      -0.678749       -18.4697
  16   1.0000      -0.656813       -17.8728
  17   1.0000      -0.642860       -17.4931
  18   1.0000      -0.605600       -16.4792
  19   1.0000      -0.586617       -15.9627
  20   1.0000      -0.575817       -15.6688
  21   1.0000      -0.534933       -14.5563
  22   0.0000      -0.465595       -12.6695
  23   0.0000      -0.265588        -7.2270
  24   0.0000      -0.132909        -3.6166
  25   0.0000      -0.100859        -2.7445
  26   0.0000      -0.096607        -2.6288

MULLIKEN ATOMIC CHARGES AND SPIN POPULATIONS
--------------------------------------------
   0 C :   -0.048237    0.030187
   1 C :    0.174525   -0.001792
   2 O :   -0.213755    0.104892
   3 H :    0.115967    0.017977
   4 H :    0.098625   -0.000058
   5 C :   -0.023559    0.155938
   6 H :    0.109306    0.015932
   7 H :    0.096193   -0.000927
   8 C :    0.257271   -0.062365
   9 H :    0.142919   -0.001337
  10 H :    0.133408   -0.006105
  11 O :    0.157337    0.747658
Sum of atomic charges         :    1.0000000

LOEWDIN ATOMIC CHARGES AND SPIN POPULATIONS
-------------------------------------------
   0 C :   -0.008574    0.029438
   1 C :    0.121595    0.004437
   2 O :    0.009545    0.096337
   3 H :    0.070138    0.014352
   4 H :    0.052491   -0.000227
   5 C :    0.020398    0.131612
   6 H :    0.077931    0.013970
   7 H :    0.060075   -0.000216
   8 C :    0.184023   -0.000609
   9 H :    0.095271    0.000902
  10 H :    0.084266   -0.002191
  11 O :    0.232841    0.712196

  Mayer bond orders larger than 0.100000
B(  0-C ,  1-C ) :   1.0723 B(  0-C ,  5-C ) :   1.0404 B(  0-C ,  6-H ) :   0.9194
B(  0-C ,  7-H ) :   0.9438 B(  1-C ,  2-O ) :   0.8550 B(  1-C ,  3-H ) :   0.9329
B(  1-C ,  4-H ) :   0.9513 B(  2-O ,  8-C ) :   1.2582 B(  2-O , 11-O ) :   0.1316
B(  5-C ,  8-C ) :   0.9165 B(  5-C ,  9-H ) :   0.8972 B(  5-C , 10-H ) :   0.9224
B(  8-C , 11-O ) :   1.8211

Dispersion correction           -0.015374501
FINAL SINGLE POINT ENERGY      -305.744660350817

DIPOLE MOMENT
-------------
                                X             Y             Z
Electronic contribution:      5.08990      -3.78961      -0.74383
Nuclear contribution   :     -5.63513       4.78017       1.01678
                        -----------------------------------------
Total Dipole Moment    :     -0.54523       0.99056       0.27295
                        -----------------------------------------
Magnitude (a.u.)       :      1.16318
Magnitude (Debye)      :      2.95658

Rotational constants in cm-1:     0.242899     0.119204     0.085243
Rotational constants in MHz :  7281.918709  3573.634312  2555.522165

                             ****ORCA TERMINATED NORMALLY****
TOTAL RUN TIME: 0 days 0 hours 3 minutes 56 seconds 736 msec
