                         Program Version 5.0.4 -  RELEASE  -
|  1> !B3LYP DEF2-TZVP OPT CPCM(CH2CL2) D4
|  2>
|  3> * xyz 0 1
|  4>    C        4.10563        1.65677        0.15322
|  5>    C        4.55192        0.42318       -0.27137
|  6>    C        3.36423       -0.41588       -0.29816
|  7>    C        2.64846        1.53323        0.35512
|  8>    N        2.25321        0.35165        0.08344
|  9>    C        1.74367        2.63265        0.76124
| 10>    C        0.38991        2.59470        0.87559
| 11>    N       -0.43919        1.52974        0.69037
| 12>    C       -1.70572        1.97367        0.86306
| 13>    C       -0.35594        3.71265        1.18498
| 14>    C       -1.68151        3.32953        1.15846
| 15>    C       -2.83262        1.22839        0.78448
| 16>    C       -2.88449       -0.24312        0.55768
| 17>    N       -1.85239       -0.97005        0.35684
| 18>    C       -3.67672       -2.38936        0.45390
| 19>    C       -4.09238       -1.07886        0.61388
| 20>    C        0.06432       -3.25237       -0.23745
| 21>    N        0.82667       -2.12964       -0.28440
| 22>    C        2.09752       -2.53961       -0.53886
| 23>    C        2.13899       -3.91183       -0.64510
| 24>    C        0.85634       -4.36474       -0.44905
| 25>    C        3.32352       -1.71477       -0.59305
| 26>    C       -1.40037       -3.34793        0.03028
| 27>    C       -2.23229       -2.31702        0.26504
| 28>    H        4.72712        2.53134        0.29376
| 29>    H        5.57171        0.14831       -0.51569
| 30>    H        2.24446        3.57968        0.94737
| 31>    H        0.02885        4.70588        1.38592
| 32>    H       -2.52528        3.97907        1.34800
| 33>    H       -3.78422        1.72686        0.94738
| 34>    H       -4.30579       -3.27040        0.45107
| 35>    H       -5.11172       -0.75094        0.76545
| 36>    H        3.02163       -4.51894       -0.79718
| 37>    H        0.54460       -5.40016       -0.42881
| 38>    H        4.25626       -2.21326       -0.84464
| 39>    H       -1.83302       -4.34496        0.00286
| 40>   Fe        0.16124       -0.30234        0.20682
| 41>    N        1.70100        0.84687        6.36173
| 42>    C        0.33686        0.37482        6.58779
| 43>    C        0.15597        0.07281        8.05890
| 44>    O        0.94301       -0.85610        8.65154
| 45>    O       -0.69313        0.65905        8.71248
| 46>    C        0.03901       -0.90080        5.79116
| 47>    H       -1.04827       -1.12812        5.86237
| 48>    H        0.57442       -1.75074        6.26904
| 49>    C        0.45055       -0.92725        4.34448
| 50>    N        1.25377       -1.89823        3.88866
| 51>    C        1.27041       -1.77136        2.56557
| 52>    H        1.81147       -2.45136        1.94052
| 53>    N        0.53587       -0.72524        2.14393
| 54>    C        0.05560       -0.13705        3.26649
| 55>    H       -0.62981        0.70093        3.28541
| 56>    H        1.72400       -2.65227        4.43407
| 57>    H        1.78907        1.18097        5.37489
| 58>    H        2.38258        0.06852        6.51630
| 59>    H       -0.37374        1.17042        6.27006
| 60>    H        0.86523       -1.07725        9.59042
| 61>    O       -0.75368        1.06742       -1.93269
| 62>    O       -0.19775        0.10446       -1.62485
| 63> **                         ****END OF INPUT****
 Total Charge           Charge          ....    0
 Multiplicity           Mult            ....    1
 Number of Electrons    NEL             ....  284
Dispersion correction           -0.171668645
FINAL SINGLE POINT ENERGY     -2950.982195096397
Dispersion correction            ... Starting D4
Dispersion correction           -0.172275368
FINAL SINGLE POINT ENERGY     -2951.038760338177
Dispersion correction            ... Starting D4
Dispersion correction           -0.173529448
FINAL SINGLE POINT ENERGY     -2951.069286203142
Dispersion correction            ... Starting D4
FINAL SINGLE POINT ENERGY     -2951.081546027511
FINAL SINGLE POINT ENERGY     -2951.086060227311
FINAL SINGLE POINT ENERGY     -2951.088538440272
FINAL SINGLE POINT ENERGY     -2951.089903040218
FINAL SINGLE POINT ENERGY     -2951.090788923015
FINAL SINGLE POINT ENERGY     -2951.091461902080
FINAL SINGLE POINT ENERGY     -2951.092041127550
FINAL SINGLE POINT ENERGY     -2951.093156345899
FINAL SINGLE POINT ENERGY     -2951.093326536182
FINAL SINGLE POINT ENERGY     -2951.093418948917
FINAL SINGLE POINT ENERGY     -2951.093517292255
FINAL SINGLE POINT ENERGY     -2951.093574768791
FINAL SINGLE POINT ENERGY     -2951.093585891537
FINAL SINGLE POINT ENERGY     -2951.093613524742
Dispersion correction            ... Starting D4
Dispersion correction           -0.174880480
FINAL SINGLE POINT ENERGY     -2951.093621034769
Dispersion correction            ... Starting D4
Dispersion correction           -0.174891275
FINAL SINGLE POINT ENERGY     -2951.093620512012
Dispersion correction            ... Starting D4
                    ***********************HURRAY********************

CARTESIAN COORDINATES (ANGSTROEM)
---------------------------------
  C      4.034690    1.564428    0.146053
  C      4.404679    0.342304   -0.312065
  C      3.211918   -0.464303   -0.350539
  C      2.613988    1.508072    0.377362
  N      2.136655    0.266281    0.068337
  C      1.854440    2.571747    0.830140
  C      0.482863    2.555197    1.014138
  N     -0.339731    1.484199    0.807315
  C     -1.608756    1.918305    1.074861
  C     -0.288811    3.697625    1.428794
  C     -1.587196    3.304168    1.458696
  C     -2.749576    1.138820    1.026557
  C     -2.767433   -0.210343    0.725385
  N     -1.671317   -0.966318    0.412612
  C     -3.548053   -2.294950    0.445225
  C     -3.947543   -1.032369    0.741440
  C      0.005561   -3.302754   -0.382957
  N      0.802318   -2.195428   -0.317534
  C      2.054240   -2.601388   -0.681511
  C      2.048566   -4.008531   -0.989752
  C      0.778736   -4.445351   -0.797560
  C      3.180898   -1.798550   -0.715966
  C     -1.351544   -3.335089   -0.117031
  C     -2.124523   -2.242780    0.235741
  H      4.648769    2.435989    0.312695
  H      5.386999   -0.002607   -0.595920
  H      2.370973    3.500091    1.035685
  H      0.126709    4.667871    1.653487
  H     -2.460694    3.881804    1.718792
  H     -3.692201    1.613053    1.265082
  H     -4.146453   -3.189104    0.362560
  H     -4.941586   -0.672997    0.958348
  H      2.914361   -4.570187   -1.305107
  H      0.381290   -5.440360   -0.925969
  H      4.111901   -2.255623   -1.023993
  H     -1.855036   -4.287891   -0.214734
  Fe     0.209304   -0.334376    0.203545
  N      1.874302    0.572371    6.496098
  C      0.432619    0.373893    6.480354
  C     -0.152334    0.397671    7.880482
  O      0.669634   -0.126930    8.801943
  O     -1.264277    0.794934    8.139426
  C     -0.062728   -0.934091    5.792501
  H     -1.151525   -0.972327    5.853241
  H      0.331478   -1.793178    6.342076
  C      0.347813   -1.011942    4.366380
  N      1.539108   -1.568707    3.948739
  C      1.630003   -1.440804    2.612691
  H      2.462214   -1.800142    2.034560
  N      0.561994   -0.824287    2.143658
  C     -0.245330   -0.552142    3.224584
  H     -1.190726   -0.051993    3.117805
  H      2.224512   -2.014054    4.539639
  H      2.217490    0.689096    5.549555
  H      2.350253   -0.228899    6.897236
  H     -0.019331    1.214708    5.953545
  H      0.218251   -0.117494    9.663552
  O     -1.038124    0.673468   -1.930617
  O     -0.015653    0.053812   -1.488938

 Multiplicity           Mult            ....    1
 Number of Electrons    NEL             ....  284
 Basis Dimension        Dim             .... 1318

ORBITAL ENERGIES
----------------

  NO   OCC          E(Eh)            E(eV)
   0   2.0000    -256.091659     -6968.6083
   1   2.0000     -30.045885      -817.5901
   2   2.0000     -25.912957      -705.1274
   3   2.0000     -25.909669      -705.0379
   4   2.0000     -25.898169      -704.7250
   5   2.0000     -19.233388      -523.3671
   6   2.0000     -19.181309      -521.9499
   7   2.0000     -19.168238      -521.5943
   8   2.0000     -19.125056      -520.4192
   9   2.0000     -14.380380      -391.3100
  10   2.0000     -14.335768      -390.0961
  11   2.0000     -14.318403      -389.6236
  12   2.0000     -14.318309      -389.6210
  13   2.0000     -14.317551      -389.6004
  14   2.0000     -14.317506      -389.5991
  15   2.0000     -14.304196      -389.2370
  16   2.0000     -10.312261      -280.6109
  17   2.0000     -10.239478      -278.6304
  18   2.0000     -10.222425      -278.1663
  19   2.0000     -10.215858      -277.9876
  20   2.0000     -10.204557      -277.6801
  21   2.0000     -10.204531      -277.6794
  22   2.0000     -10.204244      -277.6716
  23   2.0000     -10.204195      -277.6702
  24   2.0000     -10.204169      -277.6696
  25   2.0000     -10.204161      -277.6693
  26   2.0000     -10.203956      -277.6637
  27   2.0000     -10.203880      -277.6617
  28   2.0000     -10.193654      -277.3834
  29   2.0000     -10.190955      -277.3100
  30   2.0000     -10.176846      -276.9260
  31   2.0000     -10.176650      -276.9207
  32   2.0000     -10.176553      -276.9181
  33   2.0000     -10.176215      -276.9089
  34   2.0000     -10.170804      -276.7617
  35   2.0000     -10.170762      -276.7605
  36   2.0000     -10.170586      -276.7557
  37   2.0000     -10.170431      -276.7515
  38   2.0000     -10.169851      -276.7357
  39   2.0000     -10.169829      -276.7351
  40   2.0000     -10.169821      -276.7349
  41   2.0000     -10.169676      -276.7310
  42   2.0000      -3.451388       -93.9170
  43   2.0000      -2.232272       -60.7432
  44   2.0000      -2.224373       -60.5283
  45   2.0000      -2.206721       -60.0479
  46   2.0000      -1.172213       -31.8975
  47   2.0000      -1.118805       -30.4442
  48   2.0000      -1.037667       -28.2364
  49   2.0000      -1.028968       -27.9996
  50   2.0000      -0.969243       -26.3745
  51   2.0000      -0.959828       -26.1183
  52   2.0000      -0.959370       -26.1058
  53   2.0000      -0.949963       -25.8498
  54   2.0000      -0.905519       -24.6404
  55   2.0000      -0.892115       -24.2757
  56   2.0000      -0.819318       -22.2948
  57   2.0000      -0.796381       -21.6706
  58   2.0000      -0.792188       -21.5565
  59   2.0000      -0.791503       -21.5379
  60   2.0000      -0.784024       -21.3344
  61   2.0000      -0.772124       -21.0106
  62   2.0000      -0.767609       -20.8877
  63   2.0000      -0.767392       -20.8818
  64   2.0000      -0.764481       -20.8026
  65   2.0000      -0.742191       -20.1960
  66   2.0000      -0.741277       -20.1712
  67   2.0000      -0.715904       -19.4807
  68   2.0000      -0.683683       -18.6039
  69   2.0000      -0.654673       -17.8146
  70   2.0000      -0.654456       -17.8087
  71   2.0000      -0.631678       -17.1888
  72   2.0000      -0.616705       -16.7814
  73   2.0000      -0.602713       -16.4007
  74   2.0000      -0.595820       -16.2131
  75   2.0000      -0.577653       -15.7187
  76   2.0000      -0.573158       -15.5964
  77   2.0000      -0.572780       -15.5861
  78   2.0000      -0.571104       -15.5405
  79   2.0000      -0.556051       -15.1309
  80   2.0000      -0.547736       -14.9046
  81   2.0000      -0.542206       -14.7542
  82   2.0000      -0.522686       -14.2230
  83   2.0000      -0.522435       -14.2162
  84   2.0000      -0.516588       -14.0571
  85   2.0000      -0.513313       -13.9680
  86   2.0000      -0.503173       -13.6920
  87   2.0000      -0.496079       -13.4990
  88   2.0000      -0.495915       -13.4945
  89   2.0000      -0.495637       -13.4870
  90   2.0000      -0.480447       -13.0736
  91   2.0000      -0.477392       -12.9905
  92   2.0000      -0.466415       -12.6918
  93   2.0000      -0.464177       -12.6309
  94   2.0000      -0.463056       -12.6004
  95   2.0000      -0.456811       -12.4305
  96   2.0000      -0.449287       -12.2257
  97   2.0000      -0.437896       -11.9157
  98   2.0000      -0.437740       -11.9115
  99   2.0000      -0.434218       -11.8157
 100   2.0000      -0.429260       -11.6808
 101   2.0000      -0.423958       -11.5365
 102   2.0000      -0.423723       -11.5301
 103   2.0000      -0.423577       -11.5261
 104   2.0000      -0.420921       -11.4538
 105   2.0000      -0.417563       -11.3625
 106   2.0000      -0.412052       -11.2125
 107   2.0000      -0.410583       -11.1725
 108   2.0000      -0.407882       -11.0990
 109   2.0000      -0.397069       -10.8048
 110   2.0000      -0.392897       -10.6913
 111   2.0000      -0.392168       -10.6714
 112   2.0000      -0.391752       -10.6601
 113   2.0000      -0.390316       -10.6210
 114   2.0000      -0.383083       -10.4242
 115   2.0000      -0.378569       -10.3014
 116   2.0000      -0.373054       -10.1513
 117   2.0000      -0.372890       -10.1469
 118   2.0000      -0.372367       -10.1326
 119   2.0000      -0.363482        -9.8909
 120   2.0000      -0.351552        -9.5662
 121   2.0000      -0.339780        -9.2459
 122   2.0000      -0.336143        -9.1469
 123   2.0000      -0.329822        -8.9749
 124   2.0000      -0.326791        -8.8924
 125   2.0000      -0.317162        -8.6304
 126   2.0000      -0.304136        -8.2760
 127   2.0000      -0.298345        -8.1184
 128   2.0000      -0.286651        -7.8002
 129   2.0000      -0.286307        -7.7908
 130   2.0000      -0.278430        -7.5765
 131   2.0000      -0.268818        -7.3149
 132   2.0000      -0.261654        -7.1200
 133   2.0000      -0.260517        -7.0890
 134   2.0000      -0.253681        -6.9030
 135   2.0000      -0.253628        -6.9016
 136   2.0000      -0.236571        -6.4374
 137   2.0000      -0.235659        -6.4126
 138   2.0000      -0.227558        -6.1922
 139   2.0000      -0.224826        -6.1178
 140   2.0000      -0.200027        -5.4430
 141   2.0000      -0.196370        -5.3435
 142   0.0000      -0.127697        -3.4748
 143   0.0000      -0.084991        -2.3127
 144   0.0000      -0.083875        -2.2823
 145   0.0000      -0.025895        -0.7046
 146   0.0000      -0.020274        -0.5517

MULLIKEN ATOMIC CHARGES
-----------------------
   0 C :   -0.225983
   1 C :   -0.220100
   2 C :    0.215614
   3 C :    0.215196
   4 N :   -0.035420
   5 C :   -0.329561
   6 C :    0.206079
   7 N :   -0.036717
   8 C :    0.263318
   9 C :   -0.217995
  10 C :   -0.217937
  11 C :   -0.432401
  12 C :    0.265697
  13 N :   -0.039464
  14 C :   -0.218099
  15 C :   -0.216101
  16 C :    0.212641
  17 N :   -0.031585
  18 C :    0.217825
  19 C :   -0.221931
  20 C :   -0.224331
  21 C :   -0.369580
  22 C :   -0.329106
  23 C :    0.203800
  24 H :    0.140779
  25 H :    0.140796
  26 H :    0.141518
  27 H :    0.141874
  28 H :    0.142011
  29 H :    0.134347
  30 H :    0.141692
  31 H :    0.141708
  32 H :    0.140791
  33 H :    0.140850
  34 H :    0.135936
  35 H :    0.141243
  36 Fe:   -0.192143
  37 N :   -0.548691
  38 C :    0.089859
  39 C :    0.302749
  40 O :   -0.392257
  41 O :   -0.372121
  42 C :   -0.310030
  43 H :    0.134883
  44 H :    0.148351
  45 C :    0.181069
  46 N :   -0.240742
  47 C :    0.026158
  48 H :    0.209782
  49 N :   -0.035476
  50 C :   -0.211798
  51 H :    0.183766
  52 H :    0.270958
  53 H :    0.242968
  54 H :    0.236690
  55 H :    0.123708
  56 H :    0.359821
  57 O :   -0.304638
  58 O :   -0.020269
Sum of atomic charges:   -0.0000000

LOEWDIN ATOMIC CHARGES
----------------------
   0 C :   -0.113962
   1 C :   -0.114845
   2 C :   -0.209794
   3 C :   -0.203129
   4 N :    0.232719
   5 C :   -0.087641
   6 C :   -0.200934
   7 N :    0.235631
   8 C :   -0.203844
   9 C :   -0.110417
  10 C :   -0.112052
  11 C :   -0.089525
  12 C :   -0.203781
  13 N :    0.235843
  14 C :   -0.110241
  15 C :   -0.111987
  16 C :   -0.202499
  17 N :    0.233004
  18 C :   -0.209019
  19 C :   -0.114839
  20 C :   -0.113791
  21 C :   -0.094422
  22 C :   -0.087177
  23 C :   -0.200760
  24 H :    0.146021
  25 H :    0.145948
  26 H :    0.166205
  27 H :    0.146475
  28 H :    0.146584
  29 H :    0.165919
  30 H :    0.146406
  31 H :    0.146526
  32 H :    0.145922
  33 H :    0.146010
  34 H :    0.165538
  35 H :    0.166207
  36 Fe:   -0.172719
  37 N :   -0.133183
  38 C :   -0.288522
  39 C :   -0.480536
  40 O :    0.114031
  41 O :    0.063386
  42 C :   -0.191925
  43 H :    0.162015
  44 H :    0.155071
  45 C :   -0.219292
  46 N :    0.237831
  47 C :   -0.226525
  48 H :    0.152865
  49 N :    0.190401
  50 C :   -0.178529
  51 H :    0.151676
  52 H :    0.213594
  53 H :    0.159746
  54 H :    0.159234
  55 H :    0.165916
  56 H :    0.214608
  57 O :   -0.181359
  58 O :    0.055920

  Mayer bond orders larger than 0.100000
B(  0-C ,  1-C ) :   1.6107 B(  0-C ,  3-C ) :   1.0979 B(  0-C , 24-H ) :   0.9991
B(  1-C ,  2-C ) :   1.1020 B(  1-C , 25-H ) :   0.9988 B(  2-C ,  4-N ) :   1.2377
B(  2-C , 21-C ) :   1.2693 B(  3-C ,  4-N ) :   1.2484 B(  3-C ,  5-C ) :   1.2904
B(  4-N , 36-Fe) :   0.6271 B(  5-C ,  6-C ) :   1.2870 B(  5-C , 26-H ) :   1.0023
B(  6-C ,  7-N ) :   1.2428 B(  6-C ,  9-C ) :   1.1041 B(  7-N ,  8-C ) :   1.2061
B(  7-N , 36-Fe) :   0.6886 B(  8-C , 10-C ) :   1.1027 B(  8-C , 11-C ) :   1.2563
B(  9-C , 10-C ) :   1.6039 B(  9-C , 27-H ) :   0.9985 B( 10-C , 28-H ) :   0.9993
B( 11-C , 12-C ) :   1.2573 B( 11-C , 29-H ) :   1.0229 B( 11-C , 57-O ) :   0.1155
B( 12-C , 13-N ) :   1.2039 B( 12-C , 15-C ) :   1.1021 B( 13-N , 23-C ) :   1.2444
B( 13-N , 36-Fe) :   0.6897 B( 14-C , 15-C ) :   1.6032 B( 14-C , 23-C ) :   1.1038
B( 14-C , 30-H ) :   0.9985 B( 15-C , 31-H ) :   0.9994 B( 16-C , 17-N ) :   1.2508
B( 16-C , 20-C ) :   1.0988 B( 16-C , 22-C ) :   1.2898 B( 17-N , 18-C ) :   1.2372
B( 17-N , 36-Fe) :   0.6310 B( 18-C , 19-C ) :   1.1025 B( 18-C , 21-C ) :   1.2673
B( 19-C , 20-C ) :   1.6111 B( 19-C , 32-H ) :   0.9987 B( 20-C , 33-H ) :   0.9987
B( 21-C , 34-H ) :   1.0217 B( 22-C , 23-C ) :   1.2867 B( 22-C , 35-H ) :   1.0030
B( 36-Fe, 49-N ) :   0.5117 B( 36-Fe, 57-O ) :   0.4965 B( 36-Fe, 58-O ) :   1.0392
B( 37-N , 38-C ) :   1.0017 B( 37-N , 53-H ) :   0.9263 B( 37-N , 54-H ) :   0.9268
B( 38-C , 39-C ) :   0.9317 B( 38-C , 42-C ) :   0.9219 B( 38-C , 55-H ) :   0.9550
B( 39-C , 40-O ) :   1.2523 B( 39-C , 41-O ) :   2.0346 B( 40-O , 56-H ) :   0.8367
B( 42-C , 43-H ) :   0.9643 B( 42-C , 44-H ) :   0.9727 B( 42-C , 45-C ) :   0.9334
B( 45-C , 46-N ) :   1.1211 B( 45-C , 50-C ) :   1.6039 B( 46-N , 47-C ) :   1.3094
B( 46-N , 52-H ) :   0.9008 B( 47-C , 48-H ) :   0.9396 B( 47-C , 49-N ) :   1.4580
B( 49-N , 50-C ) :   1.2266 B( 50-C , 51-H ) :   0.9619 B( 57-O , 58-O ) :   1.2017

Dispersion correction           -0.174895380
FINAL SINGLE POINT ENERGY     -2951.093619398224

DIPOLE MOMENT
-------------
                                X             Y             Z
Electronic contribution:     -2.44424       0.17839     -19.18775
Nuclear contribution   :      4.66321      -2.46996      23.05163
                        -----------------------------------------
Total Dipole Moment    :      2.21897      -2.29157       3.86388
                        -----------------------------------------
Magnitude (a.u.)       :      5.01046
Magnitude (Debye)      :     12.73557

Rotational constants in cm-1:     0.004510     0.002689     0.002593
Rotational constants in MHz :   135.204212    80.623974    77.736921

                             ****ORCA TERMINATED NORMALLY****
TOTAL RUN TIME: 4 days 8 hours 7 minutes 28 seconds 200 msec
