                         Program Version 5.0.4 -  RELEASE  -
|  1> !B3LYP cc-pVTZ
|  2>
|  3> * xyz 0 1
|  4>   C   -1.05354596271083      1.42135243576665     -0.73549220185663
|  5>   C   -1.76717691585433      0.81968690597605      0.22444324622836
|  6>   C   -0.91604797271676     -0.21504620254596      0.92339098529051
|  7>   C   -3.18658916550982      1.06760146729181      0.62043996179919
|  8>   H   -3.65177058285626      1.84890976029203      0.00161745831760
|  9>   H   -3.25259686050292      1.37975261146372      1.67787971117939
| 10>   H   -3.79133874736600      0.14808169577577      0.52701048897989
| 11>   C   0.35705795446457      0.89749440001034     -0.79501799653405
| 12>   C   1.41588701773226      2.02006837281249     -0.63884945754235
| 13>   C   2.80881703463114      1.41251132710473     -0.63583732910559
| 14>   H   1.20967085252781      2.57392305919014      0.29049098629325
| 15>   H   1.34740263144453      2.70902449090648     -1.49554455642121
| 16>   C   3.37622781232091      1.19049215945855      0.75754145591531
| 17>   N   0.41123761481178     -0.07210345422347      0.31381604773552
| 18>   H   0.56307393880421      0.40954505459904     -1.76931562713006
| 19>   H   -1.34153580290440     -1.23063666814028      0.78694765203342
| 20>   H   -0.89469173408622     -0.03961126720342      2.01833030977159
| 21>   H   0.80199521648994     -0.96262165511348      0.02364954504097
| 22>   O   3.36130687691708      1.06897825383177     -1.65256833709520
| 23>   Cl  4.92950915132907      0.31373216343513      0.77168111918747
| 24>   H   2.62051255229742      0.61607693324621      1.31840686987001
| 25>   H   3.50773757250952      2.16097047317234      1.26235402519175
| 26>   H   -1.41589248177270      2.21265768289335     -1.39571435714913
| 27> **                         ****END OF INPUT****

CARTESIAN COORDINATES (ANGSTROEM)
---------------------------------
  C     -1.053546    1.421352   -0.735492
  C     -1.767177    0.819687    0.224443
  C     -0.916048   -0.215046    0.923391
  C     -3.186589    1.067601    0.620440
  H     -3.651771    1.848910    0.001617
  H     -3.252597    1.379753    1.677880
  H     -3.791339    0.148082    0.527010
  C      0.357058    0.897494   -0.795018
  C      1.415887    2.020068   -0.638849
  C      2.808817    1.412511   -0.635837
  H      1.209671    2.573923    0.290491
  H      1.347403    2.709024   -1.495545
  C      3.376228    1.190492    0.757541
  N      0.411238   -0.072103    0.313816
  H      0.563074    0.409545   -1.769316
  H     -1.341536   -1.230637    0.786948
  H     -0.894692   -0.039611    2.018330
  H      0.801995   -0.962622    0.023650
  O      3.361307    1.068978   -1.652568
  Cl     4.929509    0.313732    0.771681
  H      2.620513    0.616077    1.318407
  H      3.507738    2.160970    1.262354
  H     -1.415892    2.212658   -1.395714

 Total Charge           Charge          ....    0
 Multiplicity           Mult            ....    1
 Number of Electrons    NEL             ....   92
 Basis Dimension        Dim             ....  502

ORBITAL ENERGIES
----------------

  NO   OCC          E(Eh)            E(eV)
   0   2.0000    -101.539712     -2763.0360
   1   2.0000     -19.121136      -520.3126
   2   2.0000     -14.314458      -389.5162
   3   2.0000     -10.268561      -279.4218
   4   2.0000     -10.233530      -278.4685
   5   2.0000     -10.223728      -278.2018
   6   2.0000     -10.211788      -277.8769
   7   2.0000     -10.192877      -277.3623
   8   2.0000     -10.186695      -277.1941
   9   2.0000     -10.185066      -277.1497
  10   2.0000     -10.177752      -276.9507
  11   2.0000      -9.445127      -257.0150
  12   2.0000      -7.208253      -196.1465
  13   2.0000      -7.199321      -195.9035
  14   2.0000      -7.199232      -195.9010
  15   2.0000      -1.050575       -28.5876
  16   2.0000      -0.935008       -25.4429
  17   2.0000      -0.849786       -23.1239
  18   2.0000      -0.800361       -21.7789
  19   2.0000      -0.787101       -21.4181
  20   2.0000      -0.728134       -19.8135
  21   2.0000      -0.696125       -18.9425
  22   2.0000      -0.674785       -18.3618
  23   2.0000      -0.592719       -16.1287
  24   2.0000      -0.550782       -14.9875
  25   2.0000      -0.532223       -14.4825
  26   2.0000      -0.520757       -14.1705
  27   2.0000      -0.486404       -13.2357
  28   2.0000      -0.474520       -12.9123
  29   2.0000      -0.458197       -12.4682
  30   2.0000      -0.453773       -12.3478
  31   2.0000      -0.434924       -11.8349
  32   2.0000      -0.430934       -11.7263
  33   2.0000      -0.417269       -11.3545
  34   2.0000      -0.403777       -10.9873
  35   2.0000      -0.399873       -10.8811
  36   2.0000      -0.399535       -10.8719
  37   2.0000      -0.375347       -10.2137
  38   2.0000      -0.369444       -10.0531
  39   2.0000      -0.360812        -9.8182
  40   2.0000      -0.350115        -9.5271
  41   2.0000      -0.296092        -8.0571
  42   2.0000      -0.293468        -7.9857
  43   2.0000      -0.267123        -7.2688
  44   2.0000      -0.255574        -6.9545
  45   2.0000      -0.231973        -6.3123
  46   0.0000      -0.026702        -0.7266
  47   0.0000       0.003191         0.0868
  48   0.0000       0.020639         0.5616
  49   0.0000       0.031280         0.8512
  50   0.0000       0.038515         1.0480

MULLIKEN ATOMIC CHARGES
-----------------------
   0 C :   -0.211040
   1 C :    0.069654
   2 C :   -0.085255
   3 C :   -0.290166
   4 H :    0.101676
   5 H :    0.099833
   6 H :    0.098636
   7 C :    0.042694
   8 C :   -0.162399
   9 C :    0.199431
  10 H :    0.086407
  11 H :    0.105763
  12 C :   -0.127880
  13 N :   -0.255497
  14 H :    0.102443
  15 H :    0.078049
  16 H :    0.073040
  17 H :    0.127099
  18 O :   -0.258233
  19 Cl:   -0.150966
  20 H :    0.118593
  21 H :    0.123834
  22 H :    0.114285
Sum of atomic charges:   -0.0000000

LOEWDIN ATOMIC CHARGES
----------------------
   0 C :    0.035852
   1 C :   -0.055592
   2 C :   -0.010792
   3 C :    0.097847
   4 H :   -0.012879
   5 H :   -0.012709
   6 H :   -0.013119
   7 C :   -0.087940
   8 C :    0.048637
   9 C :   -0.313800
  10 H :   -0.017594
  11 H :   -0.009903
  12 C :   -0.157276
  13 N :    0.346691
  14 H :   -0.019725
  15 H :   -0.026408
  16 H :   -0.025892
  17 H :   -0.109914
  18 O :    0.215529
  19 Cl:    0.221987
  20 H :   -0.034269
  21 H :   -0.024859
  22 H :   -0.033870

  Mayer bond orders larger than 0.100000
B(  0-C ,  1-C ) :   1.8079 B(  0-C ,  7-C ) :   0.9841 B(  0-C , 22-H ) :   0.9536
B(  1-C ,  2-C ) :   0.9694 B(  1-C ,  3-C ) :   0.9705 B(  2-C , 13-N ) :   1.0200
B(  2-C , 15-H ) :   0.9528 B(  2-C , 16-H ) :   0.9474 B(  3-C ,  4-H ) :   0.9753
B(  3-C ,  5-H ) :   0.9570 B(  3-C ,  6-H ) :   0.9566 B(  7-C ,  8-C ) :   0.9000
B(  7-C , 13-N ) :   0.9827 B(  7-C , 14-H ) :   0.9621 B(  8-C ,  9-C ) :   0.9227
B(  8-C , 10-H ) :   0.9593 B(  8-C , 11-H ) :   0.9556 B(  9-C , 12-C ) :   0.8951
B(  9-C , 18-O ) :   2.2174 B( 12-C , 19-Cl) :   1.0324 B( 12-C , 20-H ) :   0.9225
B( 12-C , 21-H ) :   0.9457 B( 13-N , 17-H ) :   0.9847

FINAL SINGLE POINT ENERGY      -902.078010886698

DIPOLE MOMENT
-------------
                                X             Y             Z
Electronic contribution:     22.56326      -2.24587      -1.09596
Nuclear contribution   :    -24.46675       2.52936       1.68763
                        -----------------------------------------
Total Dipole Moment    :     -1.90349       0.28348       0.59167
                        -----------------------------------------
Magnitude (a.u.)       :      2.01338
Magnitude (Debye)      :      5.11761

Rotational constants in cm-1:     0.078975     0.013377     0.012208
Rotational constants in MHz :  2367.608052   401.025928   365.983271

                             ****ORCA TERMINATED NORMALLY****
TOTAL RUN TIME: 0 days 0 hours 12 minutes 6 seconds 683 msec
