                         Program Version 5.0.4 -  RELEASE  -
|  1> ! FOD
|  2>
|  3> *xyz 0 1
|  4> C 0.0000000  1.2077612  0.7161013
|  5> C 0.0000000  0.0000000  1.3596219
|  6> C 0.0000000 -1.2077612  0.7161013
|  7> C 0.0000000 -1.2077612 -0.7161013
|  8> C 0.0000000  0.0000000 -1.3596219
|  9> C 0.0000000  1.2077612 -0.7161013
| 10> H 0.0000000  2.1606260  1.2276695
| 11> H 0.0000000 -2.1606260  1.2276695
| 12> H 0.0000000 -2.1606260 -1.2276695
| 13> H 0.0000000  2.1606260 -1.2276695
| 14> **                         ****END OF INPUT****

CARTESIAN COORDINATES (ANGSTROEM)
---------------------------------
  C      0.000000    1.207761    0.716101
  C      0.000000    0.000000    1.359622
  C      0.000000   -1.207761    0.716101
  C      0.000000   -1.207761   -0.716101
  C      0.000000    0.000000   -1.359622
  C      0.000000    1.207761   -0.716101
  H      0.000000    2.160626    1.227669
  H      0.000000   -2.160626    1.227669
  H      0.000000   -2.160626   -1.227669
  H      0.000000    2.160626   -1.227669

 Total Charge           Charge          ....    0
 Multiplicity           Mult            ....    1
 Number of Electrons    NEL             ....   40
 Basis Dimension        Dim             ....  210

ORBITAL ENERGIES
----------------

  NO   OCC          E(Eh)            E(eV)
   0   2.0000     -10.018735      -272.6236
   1   2.0000     -10.018733      -272.6236
   2   2.0000     -10.018477      -272.6166
   3   2.0000     -10.018459      -272.6161
   4   2.0000     -10.010658      -272.4039
   5   2.0000     -10.010650      -272.4036
   6   2.0000      -0.812333       -22.1047
   7   2.0000      -0.711164       -19.3518
   8   2.0000      -0.690925       -18.8010
   9   2.0000      -0.576884       -15.6978
  10   2.0000      -0.550673       -14.9846
  11   2.0000      -0.448430       -12.2024
  12   2.0000      -0.433736       -11.8026
  13   2.0000      -0.424892       -11.5619
  14   2.0000      -0.398539       -10.8448
  15   2.0000      -0.350828        -9.5465
  16   1.9999      -0.340865        -9.2754
  17   1.9720      -0.246659        -6.7119
  18   1.9683      -0.244677        -6.6580
  19   1.5997      -0.201255        -5.4764
  20   0.4589      -0.160136        -4.3575
  21   0.0011      -0.060835        -1.6554
  22   0.0002      -0.030825        -0.8388
  23   0.0000       0.045356         1.2342
  24   0.0000       0.060108         1.6356
  25   0.0000       0.086478         2.3532
  26   0.0000       0.094815         2.5801
  27   0.0000       0.105999         2.8844

LOEWDIN ATOMIC CHARGES
----------------------
   0 C :   -0.137701
   1 C :   -0.028771
   2 C :   -0.137701
   3 C :   -0.137701
   4 C :   -0.028773
   5 C :   -0.137701
   6 H :    0.152087
   7 H :    0.152087
   8 H :    0.152087
   9 H :    0.152087

  Mayer bond orders larger than 0.100000
B(  0-C ,  1-C ) :   1.5757 B(  0-C ,  5-C ) :   1.2813 B(  0-C ,  6-H ) :   0.9319
B(  1-C ,  2-C ) :   1.5757 B(  1-C ,  4-C ) :   0.1579 B(  2-C ,  3-C ) :   1.2813
B(  2-C ,  7-H ) :   0.9319 B(  3-C ,  4-C ) :   1.5757 B(  3-C ,  8-H ) :   0.9319
B(  4-C ,  5-C ) :   1.5757 B(  5-C ,  9-H ) :   0.9319

FINAL SINGLE POINT ENERGY      -231.003398487279

DIPOLE MOMENT
-------------
                                X             Y             Z
Electronic contribution:      0.00000       0.00000       0.00001
Nuclear contribution   :      0.00000       0.00000       0.00000
                        -----------------------------------------
Total Dipole Moment    :      0.00000       0.00000       0.00001
                        -----------------------------------------
Magnitude (a.u.)       :      0.00001
Magnitude (Debye)      :      0.00002

Rotational constants in cm-1:     0.224409     0.189617     0.102775
Rotational constants in MHz :  6727.599888  5684.567580  3081.129570

                             ****ORCA TERMINATED NORMALLY****
TOTAL RUN TIME: 0 days 0 hours 1 minutes 54 seconds 546 msec
