                         Program Version 5.0.4 -  RELEASE  -
|  1> !B3LYP DEF2-QZVPP
|  2>
|  3> %scf
|  4> smearTemp 5000
|  5> convergence tight
|  6> end
|  7>
|  8> * xyz 0 1
|  9>   C   -7.64955123257574      1.05667496322029      0.00014520838104
| 10>   C   -8.79916351080206      0.24872780425274      0.00008905118997
| 11>   C   -8.67321655981621     -1.13811711906506     -0.00000919817803
| 12>   C   -7.40029987012933     -1.72545521617015     -0.00005668085097
| 13>   C   -6.25283944731800     -0.92603412378881     -0.00000445009069
| 14>   C   -6.37843668408918      0.46455608191688      0.00009149100933
| 15>   H   -9.77661143532832      0.73646330403028      0.00013423090312
| 16>   H   -9.56538097816012     -1.76944944365123     -0.00004787808665
| 17>   H   -7.30398836209473     -2.81446583393220     -0.00013419510464
| 18>   H   -5.26279373559463     -1.38857504724656     -0.00004062474458
| 19>   H   -5.48778053780068      1.10055393291687      0.00013390758895
| 20>   C   -7.78086952931509      2.53411063434570      0.00027982611682
| 21>   O   -8.83232576750578      3.13199127167985     -0.00028240644287
| 22>   H   -6.80289234947011      3.08481879149140     -0.00029828169081
| 23> **                         ****END OF INPUT****

CARTESIAN COORDINATES (ANGSTROEM)
---------------------------------
  C     -7.649551    1.056675    0.000145
  C     -8.799164    0.248728    0.000089
  C     -8.673217   -1.138117   -0.000009
  C     -7.400300   -1.725455   -0.000057
  C     -6.252839   -0.926034   -0.000004
  C     -6.378437    0.464556    0.000091
  H     -9.776611    0.736463    0.000134
  H     -9.565381   -1.769449   -0.000048
  H     -7.303988   -2.814466   -0.000134
  H     -5.262794   -1.388575   -0.000041
  H     -5.487781    1.100554    0.000134
  C     -7.780870    2.534111    0.000280
  O     -8.832326    3.131991   -0.000282
  H     -6.802892    3.084819   -0.000298

 Total Charge           Charge          ....    0
 Multiplicity           Mult            ....    1
 Number of Electrons    NEL             ....   56
 Basis Dimension        Dim             ....  636

ORBITAL ENERGIES
----------------

  NO   OCC          E(Eh)            E(eV)
   0   2.0000     -19.126012      -520.4452
   1   2.0000     -10.265397      -279.3357
   2   2.0000     -10.202907      -277.6352
   3   2.0000     -10.201569      -277.5988
   4   2.0000     -10.199331      -277.5379
   5   2.0000     -10.198024      -277.5024
   6   2.0000     -10.197044      -277.4757
   7   2.0000     -10.196456      -277.4597
   8   2.0000      -1.050036       -28.5729
   9   2.0000      -0.874230       -23.7890
  10   2.0000      -0.777250       -21.1501
  11   2.0000      -0.764257       -20.7965
  12   2.0000      -0.657653       -17.8956
  13   2.0000      -0.624187       -16.9850
  14   2.0000      -0.579118       -15.7586
  15   2.0000      -0.529280       -14.4024
  16   2.0000      -0.490387       -13.3441
  17   2.0000      -0.469009       -12.7624
  18   2.0000      -0.447284       -12.1712
  19   2.0000      -0.439148       -11.9498
  20   2.0000      -0.434880       -11.8337
  21   2.0000      -0.415536       -11.3073
  22   2.0000      -0.375399       -10.2151
  23   2.0000      -0.373963       -10.1761
  24   2.0000      -0.361051        -9.8247
  25   1.9982      -0.276284        -7.5181
  26   1.9978      -0.273109        -7.4317
  27   1.9965      -0.265778        -7.2322
  28   0.0071      -0.076351        -2.0776
  29   0.0004      -0.031944        -0.8692
  30   0.0000       0.017938         0.4881
  31   0.0000       0.018913         0.5147
  32   0.0000       0.033849         0.9211
  33   0.0000       0.049563         1.3487
  34   0.0000       0.061887         1.6840

LOEWDIN ATOMIC CHARGES
----------------------
   0 C :   -0.130309
   1 C :    0.103555
   2 C :    0.072327
   3 C :    0.077799
   4 C :    0.068720
   5 C :    0.085313
   6 H :   -0.043072
   7 H :   -0.053670
   8 H :   -0.052697
   9 H :   -0.054667
  10 H :   -0.048687
  11 C :   -0.306478
  12 O :    0.350466
  13 H :   -0.068602

  Mayer bond orders larger than 0.100000
B(  0-C ,  1-C ) :   1.2050 B(  0-C ,  5-C ) :   1.2035 B(  0-C , 11-C ) :   0.9843
B(  1-C ,  2-C ) :   1.3360 B(  1-C ,  6-H ) :   0.9434 B(  2-C ,  3-C ) :   1.3012
B(  2-C ,  7-H ) :   0.9691 B(  3-C ,  4-C ) :   1.3267 B(  3-C ,  8-H ) :   0.9647
B(  4-C ,  5-C ) :   1.3430 B(  4-C ,  9-H ) :   0.9675 B(  5-C , 10-H ) :   0.9563
B( 11-C , 12-O ) :   2.0058 B( 11-C , 13-H ) :   0.9626

FINAL SINGLE POINT ENERGY      -345.523881134032

DIPOLE MOMENT
-------------
                                X             Y             Z
Electronic contribution:     -1.31019       2.77641       0.00055
Nuclear contribution   :      2.09952      -3.87654      -0.00033
                        -----------------------------------------
Total Dipole Moment    :      0.78933      -1.10013       0.00022
                        -----------------------------------------
Magnitude (a.u.)       :      1.35401
Magnitude (Debye)      :      3.44161

Rotational constants in cm-1:     0.173808     0.051962     0.040003
Rotational constants in MHz :  5210.632863  1557.792854  1199.257712

                             ****ORCA TERMINATED NORMALLY****
TOTAL RUN TIME: 0 days 0 hours 51 minutes 18 seconds 759 msec
