                         Program Version 5.0.4 -  RELEASE  -
|  1> !BP86 DEF2-SVP FREQ
|  2>
|  3> * xyz 0 1
|  4>   C      -4.127240      1.598090      0.000000
|  5>   C      -5.236140      0.753090      0.000000
|  6>   C      -5.058790     -0.629750      0.000000
|  7>   C      -3.772550     -1.167590      0.000000
|  8>   C      -2.663650     -0.322590      0.000000
|  9>   C      -2.840990      1.060250      0.000000
| 10>   H      -4.265550      2.676550      0.000000
| 11>   H      -1.976170      1.719260      0.000000
| 12>   H      -1.660520     -0.742040      0.000000
| 13>   H      -3.634240     -2.246050      0.000000
| 14>   H      -5.923620     -1.288760      0.000000
| 15>   H      -6.239270      1.172540      0.000000
| 16> **                         ****END OF INPUT****

CARTESIAN COORDINATES (ANGSTROEM)
---------------------------------
  C     -4.127240    1.598090    0.000000
  C     -5.236140    0.753090    0.000000
  C     -5.058790   -0.629750    0.000000
  C     -3.772550   -1.167590    0.000000
  C     -2.663650   -0.322590    0.000000
  C     -2.840990    1.060250    0.000000
  H     -4.265550    2.676550    0.000000
  H     -1.976170    1.719260    0.000000
  H     -1.660520   -0.742040    0.000000
  H     -3.634240   -2.246050    0.000000
  H     -5.923620   -1.288760    0.000000
  H     -6.239270    1.172540    0.000000

 Total Charge           Charge          ....    0
 Multiplicity           Mult            ....    1
 Number of Electrons    NEL             ....   42
 Basis Dimension        Dim             ....  114

ORBITAL ENERGIES
----------------

  NO   OCC          E(Eh)            E(eV)
   0   2.0000      -9.915752      -269.8213
   1   2.0000      -9.915668      -269.8190
   2   2.0000      -9.915664      -269.8189
   3   2.0000      -9.915425      -269.8124
   4   2.0000      -9.915421      -269.8123
   5   2.0000      -9.915386      -269.8114
   6   2.0000      -0.773379       -21.0447
   7   2.0000      -0.670343       -18.2410
   8   2.0000      -0.670337       -18.2408
   9   2.0000      -0.539855       -14.6902
  10   2.0000      -0.539854       -14.6902
  11   2.0000      -0.472832       -12.8664
  12   2.0000      -0.407512       -11.0890
  13   2.0000      -0.401228       -10.9180
  14   2.0000      -0.376044       -10.2327
  15   2.0000      -0.376038       -10.2325
  16   2.0000      -0.332557        -9.0493
  17   2.0000      -0.303294        -8.2531
  18   2.0000      -0.303294        -8.2530
  19   2.0000      -0.231695        -6.3047
  20   2.0000      -0.231689        -6.3046
  21   0.0000      -0.039506        -1.0750
  22   0.0000      -0.039504        -1.0750
  23   0.0000       0.040007         1.0887
  24   0.0000       0.083296         2.2666
  25   0.0000       0.083301         2.2667

MULLIKEN ATOMIC CHARGES
-----------------------
   0 C :    0.004757
   1 C :    0.004758
   2 C :    0.004853
   3 C :    0.004762
   4 C :    0.004756
   5 C :    0.004859
   6 H :   -0.004788
   7 H :   -0.004806
   8 H :   -0.004779
   9 H :   -0.004789
  10 H :   -0.004803
  11 H :   -0.004779
Sum of atomic charges:    0.0000000

LOEWDIN ATOMIC CHARGES
----------------------
   0 C :   -0.029341
   1 C :   -0.029341
   2 C :   -0.029337
   3 C :   -0.029343
   4 C :   -0.029340
   5 C :   -0.029336
   6 H :    0.029339
   7 H :    0.029336
   8 H :    0.029343
   9 H :    0.029340
  10 H :    0.029337
  11 H :    0.029343

  Mayer bond orders larger than 0.100000
B(  0-C ,  1-C ) :   1.3907 B(  0-C ,  5-C ) :   1.3907 B(  0-C ,  6-H ) :   0.9807
B(  1-C ,  2-C ) :   1.3907 B(  1-C , 11-H ) :   0.9807 B(  2-C ,  3-C ) :   1.3907
B(  2-C , 10-H ) :   0.9807 B(  3-C ,  4-C ) :   1.3907 B(  3-C ,  9-H ) :   0.9807
B(  4-C ,  5-C ) :   1.3907 B(  4-C ,  8-H ) :   0.9807 B(  5-C ,  7-H ) :   0.9807

FINAL SINGLE POINT ENERGY      -232.077067275859

DIPOLE MOMENT
-------------
                                X             Y             Z
Electronic contribution:      0.00001       0.00000      -0.00000
Nuclear contribution   :     -0.00001      -0.00000       0.00000
                        -----------------------------------------
Total Dipole Moment    :      0.00000       0.00000      -0.00000
                        -----------------------------------------
Magnitude (a.u.)       :      0.00000
Magnitude (Debye)      :      0.00001

VIBRATIONAL FREQUENCIES
-----------------------

Scaling factor for frequencies =  1.000000000  (already applied!)

   0:         0.00 cm**-1
   1:         0.00 cm**-1
   2:         0.00 cm**-1
   3:         0.00 cm**-1
   4:         0.00 cm**-1
   5:         0.00 cm**-1
   6:       368.46 cm**-1
   7:       368.68 cm**-1
   8:       579.40 cm**-1
   9:       595.01 cm**-1
  10:       595.07 cm**-1
  11:       703.47 cm**-1
  12:       780.52 cm**-1
  13:       780.58 cm**-1
  14:       922.15 cm**-1
  15:       922.19 cm**-1
  16:       959.12 cm**-1
  17:       986.01 cm**-1
  18:      1027.53 cm**-1
  19:      1030.53 cm**-1
  20:      1031.16 cm**-1
  21:      1105.66 cm**-1
  22:      1138.21 cm**-1
  23:      1138.41 cm**-1
  24:      1298.35 cm**-1
  25:      1424.08 cm**-1
  26:      1471.90 cm**-1
  27:      1472.01 cm**-1
  28:      1643.98 cm**-1
  29:      1644.07 cm**-1
  30:      3219.39 cm**-1
  31:      3228.82 cm**-1
  32:      3228.95 cm**-1
  33:      3242.94 cm**-1
  34:      3243.10 cm**-1
  35:      3252.25 cm**-1

IR SPECTRUM
-----------

 Mode   freq       eps      Int      T**2         TX        TY        TZ
       cm**-1   L/(mol*cm) km/mol    a.u.
----------------------------------------------------------------------------
  6:    368.46   0.000000    0.00  0.000000  (-0.000000  0.000000  0.000025)
  7:    368.68   0.000000    0.00  0.000000  (-0.000000  0.000000  0.000020)
  8:    579.40   0.015939   80.55  0.008584  ( 0.000000 -0.000000  0.092653)
  9:    595.01   0.000000    0.00  0.000000  ( 0.000000 -0.000000 -0.000000)
 10:    595.07   0.000000    0.00  0.000000  (-0.000000  0.000000 -0.000000)
 11:    703.47   0.000000    0.00  0.000000  ( 0.000000 -0.000000  0.000001)
 12:    780.52   0.000000    0.00  0.000000  (-0.000000 -0.000000 -0.000003)
 13:    780.58   0.000000    0.00  0.000000  (-0.000000  0.000000  0.000003)
 14:    922.15   0.000000    0.00  0.000000  (-0.000000 -0.000000 -0.000028)
 15:    922.19   0.000000    0.00  0.000000  ( 0.000000  0.000000  0.000007)
 16:    959.12   0.000000    0.00  0.000000  ( 0.000000 -0.000000 -0.000001)
 17:    986.01   0.000000    0.00  0.000000  ( 0.000072  0.000168  0.000000)
 18:   1027.53   0.000000    0.00  0.000000  ( 0.000006  0.000017 -0.000000)
 19:   1030.53   0.001301    6.58  0.000394  ( 0.019268  0.004770 -0.000000)
 20:   1031.16   0.001145    5.79  0.000347  (-0.004459  0.018077  0.000000)
 21:   1105.66   0.000004    0.02  0.000001  (-0.001011  0.000073 -0.000000)
 22:   1138.21   0.000000    0.00  0.000000  ( 0.000000 -0.000001  0.000000)
 23:   1138.41   0.000000    0.00  0.000000  (-0.000000  0.000001  0.000000)
 24:   1298.35   0.000000    0.00  0.000000  (-0.000000  0.000000 -0.000000)
 25:   1424.08   0.000000    0.00  0.000000  ( 0.000053 -0.000024 -0.000000)
 26:   1471.90   0.001144    5.78  0.000243  ( 0.015386 -0.002418 -0.000000)
 27:   1472.01   0.001078    5.45  0.000229  (-0.002565 -0.014901  0.000000)
 28:   1643.98   0.000000    0.00  0.000000  (-0.000000  0.000000  0.000000)
 29:   1644.07   0.000000    0.00  0.000000  ( 0.000000  0.000001 -0.000000)
 30:   3219.39   0.000001    0.00  0.000000  (-0.000137 -0.000176 -0.000000)
 31:   3228.82   0.000000    0.00  0.000000  (-0.000021 -0.000016  0.000000)
 32:   3228.95   0.000000    0.00  0.000000  ( 0.000030  0.000022  0.000000)
 33:   3242.94   0.006389   32.29  0.000615  (-0.014044 -0.020435 -0.000000)
 34:   3243.10   0.006287   31.77  0.000605  (-0.020385  0.013761 -0.000000)
 35:   3252.25   0.000000    0.00  0.000000  (-0.000037 -0.000028  0.000000)

--------------------------
THERMOCHEMISTRY AT 298.15K
--------------------------

Temperature         ... 298.15 K
Pressure            ... 1.00 atm
Total Mass          ... 78.11 AMU

Throughout the following assumptions are being made:
  (1) The electronic state is orbitally nondegenerate
  (2) There are no thermally accessible electronically excited states
  (3) Hindered rotations indicated by low frequency modes are not
      treated as such but are treated as vibrations and this may
      cause some error
  (4) All equations used are the standard statistical mechanics
      equations for an ideal gas
  (5) All vibrations are strictly harmonic

freq.     368.46  E(vib)   ...       0.21
freq.     368.68  E(vib)   ...       0.21
freq.     579.40  E(vib)   ...       0.11
freq.     595.01  E(vib)   ...       0.10
freq.     595.07  E(vib)   ...       0.10
freq.     703.47  E(vib)   ...       0.07
freq.     780.52  E(vib)   ...       0.05
freq.     780.58  E(vib)   ...       0.05
freq.     922.15  E(vib)   ...       0.03
freq.     922.19  E(vib)   ...       0.03
freq.     959.12  E(vib)   ...       0.03
freq.     986.01  E(vib)   ...       0.02
freq.    1027.53  E(vib)   ...       0.02
freq.    1030.53  E(vib)   ...       0.02
freq.    1031.16  E(vib)   ...       0.02
freq.    1105.66  E(vib)   ...       0.02
freq.    1138.21  E(vib)   ...       0.01
freq.    1138.41  E(vib)   ...       0.01
freq.    1298.35  E(vib)   ...       0.01
freq.    1424.08  E(vib)   ...       0.00
freq.    1471.90  E(vib)   ...       0.00
freq.    1472.01  E(vib)   ...       0.00
freq.    1643.98  E(vib)   ...       0.00
freq.    1644.07  E(vib)   ...       0.00
freq.    3219.39  E(vib)   ...       0.00
freq.    3228.82  E(vib)   ...       0.00
freq.    3228.95  E(vib)   ...       0.00
freq.    3242.94  E(vib)   ...       0.00
freq.    3243.10  E(vib)   ...       0.00
freq.    3252.25  E(vib)   ...       0.00

------------
INNER ENERGY
------------

The inner energy is: U= E(el) + E(ZPE) + E(vib) + E(rot) + E(trans)
    E(el)   - is the total energy from the electronic structure calculation
              = E(kin-el) + E(nuc-el) + E(el-el) + E(nuc-nuc)
    E(ZPE)  - the the zero temperature vibrational energy from the frequency calculation
    E(vib)  - the the finite temperature correction to E(ZPE) due to population
              of excited vibrational states
    E(rot)  - is the rotational thermal energy
    E(trans)- is the translational thermal energy

Summary of contributions to the inner energy U:
Electronic energy                ...   -232.07706728 Eh
Zero point energy                ...      0.09887700 Eh      62.05 kcal/mol
Thermal vibrational correction   ...      0.00184080 Eh       1.16 kcal/mol
Thermal rotational correction    ...      0.00141627 Eh       0.89 kcal/mol
Thermal translational correction ...      0.00141627 Eh       0.89 kcal/mol
-----------------------------------------------------------------------
Total thermal energy                   -231.97351693 Eh

Summary of corrections to the electronic energy:
(perhaps to be used in another calculation)
Total thermal correction                  0.00467334 Eh       2.93 kcal/mol
Non-thermal (ZPE) correction              0.09887700 Eh      62.05 kcal/mol
-----------------------------------------------------------------------
Total correction                          0.10355034 Eh      64.98 kcal/mol

--------
ENTHALPY
--------

The enthalpy is H = U + kB*T
                kB is Boltzmann's constant
Total free energy                 ...   -231.97351693 Eh
Thermal Enthalpy correction       ...      0.00094421 Eh       0.59 kcal/mol
-----------------------------------------------------------------------
Total Enthalpy                    ...   -231.97257273 Eh

Note: Rotational entropy computed according to Herzberg
Infrared and Raman Spectra, Chapter V,1, Van Nostrand Reinhold, 1945
Point Group:  D6h, Symmetry Number:  12
Rotational constants in cm-1:     0.190144     0.190142     0.095071

Vibrational entropy computed according to the QRRHO of S. Grimme
Chem.Eur.J. 2012 18 9955

-------
ENTROPY
-------

The entropy contributions are T*S = T*(S(el)+S(vib)+S(rot)+S(trans))
     S(el)   - electronic entropy
     S(vib)  - vibrational entropy
     S(rot)  - rotational entropy
     S(trans)- translational entropy
The entropies will be listed as multiplied by the temperature to get
units of energy

Electronic entropy                ...      0.00000000 Eh      0.00 kcal/mol
Vibrational entropy               ...      0.00251637 Eh      1.58 kcal/mol
Rotational entropy                ...      0.00984282 Eh      6.18 kcal/mol
Translational entropy             ...      0.01852142 Eh     11.62 kcal/mol
-----------------------------------------------------------------------
Final entropy term                ...      0.03088061 Eh     19.38 kcal/mol

In case the symmetry of your molecule has not been determined correctly
or in case you have a reason to use a different symmetry number we print
out the resulting rotational entropy values for sn=1,12 :
 --------------------------------------------------------
|  sn= 1 | S(rot)=       0.01218902 Eh      7.65 kcal/mol|
|  sn= 2 | S(rot)=       0.01153456 Eh      7.24 kcal/mol|
|  sn= 3 | S(rot)=       0.01115173 Eh      7.00 kcal/mol|
|  sn= 4 | S(rot)=       0.01088011 Eh      6.83 kcal/mol|
|  sn= 5 | S(rot)=       0.01066942 Eh      6.70 kcal/mol|
|  sn= 6 | S(rot)=       0.01049728 Eh      6.59 kcal/mol|
|  sn= 7 | S(rot)=       0.01035173 Eh      6.50 kcal/mol|
|  sn= 8 | S(rot)=       0.01022565 Eh      6.42 kcal/mol|
|  sn= 9 | S(rot)=       0.01011444 Eh      6.35 kcal/mol|
|  sn=10 | S(rot)=       0.01001496 Eh      6.28 kcal/mol|
|  sn=11 | S(rot)=       0.00992497 Eh      6.23 kcal/mol|
|  sn=12 | S(rot)=       0.00984282 Eh      6.18 kcal/mol|
 --------------------------------------------------------

-------------------
GIBBS FREE ENERGY
-------------------

The Gibbs free energy is G = H - T*S

Total enthalpy                    ...   -231.97257273 Eh
Total entropy correction          ...     -0.03088061 Eh    -19.38 kcal/mol
-----------------------------------------------------------------------
Final Gibbs free energy         ...   -232.00345334 Eh

For completeness - the Gibbs free energy minus the electronic energy
G-E(el)                           ...      0.07361394 Eh     46.19 kcal/mol

                             ****ORCA TERMINATED NORMALLY****
TOTAL RUN TIME: 0 days 0 hours 2 minutes 34 seconds 244 msec
