                         Program Version 5.0.4 -  RELEASE  -
|  1> !B3LYP DEF2-SVP OPT FREQ D4 SOSCF
|  2>
|  3> * xyz 1 1
|  4>    C       -2.24466        1.29795       -0.19154
|  5>    C       -3.34272        0.51401       -0.26009
|  6>    C       -3.22355       -0.95680       -0.24454
|  7>    C       -2.01436       -1.52425       -0.20352
|  8>    C       -0.80021       -0.67808       -0.17078
|  9>    C       -0.86840        0.67705       -0.06535
| 10>    H       -4.33350        0.95455       -0.32143
| 11>    H       -4.11579       -1.57353       -0.28393
| 12>    H       -1.91968       -2.60539       -0.21909
| 13>    H        0.15817       -1.18488       -0.24758
| 14>    H       -0.69846        0.78272        1.00482
| 15>    N       -2.41632        2.71171       -0.17372
| 16>    H       -3.35571        3.12963       -0.24922
| 17>    H       -1.62320        3.34939       -0.02507
| 18>    N        0.28792        1.38174       -0.55125
| 19>    O        0.16421        2.34724       -1.24210
| 20>    O        1.38746        0.95763       -0.34752
| 21> **                         ****END OF INPUT****
 Total Charge           Charge          ....    1
 Multiplicity           Mult            ....    1
 Number of Electrons    NEL             ....   72
Dispersion correction           -0.026853541
FINAL SINGLE POINT ENERGY      -491.757630113737
Dispersion correction            ... Starting D4
Dispersion correction           -0.026890135
FINAL SINGLE POINT ENERGY      -491.802195565110
Dispersion correction            ... Starting D4
Dispersion correction           -0.026927667
FINAL SINGLE POINT ENERGY      -491.819239547068
Dispersion correction            ... Starting D4
FINAL SINGLE POINT ENERGY      -491.823147776032
FINAL SINGLE POINT ENERGY      -491.824252202226
FINAL SINGLE POINT ENERGY      -491.825092052380
FINAL SINGLE POINT ENERGY      -491.825464308883
FINAL SINGLE POINT ENERGY      -491.825893607704
FINAL SINGLE POINT ENERGY      -491.826244982416
FINAL SINGLE POINT ENERGY      -491.826603371495
FINAL SINGLE POINT ENERGY      -491.826921962082
FINAL SINGLE POINT ENERGY      -491.827090655378
FINAL SINGLE POINT ENERGY      -491.827173558808
FINAL SINGLE POINT ENERGY      -491.827214354660
FINAL SINGLE POINT ENERGY      -491.827236449174
FINAL SINGLE POINT ENERGY      -491.827243876020
FINAL SINGLE POINT ENERGY      -491.827248608373
Dispersion correction           -0.026917513
FINAL SINGLE POINT ENERGY      -491.827251973399
Dispersion correction            ... Starting D4
Dispersion correction           -0.026917903
FINAL SINGLE POINT ENERGY      -491.827253490950
Dispersion correction            ... Starting D4
                    ***********************HURRAY********************

CARTESIAN COORDINATES (ANGSTROEM)
---------------------------------
  C     -2.258585    1.333893   -0.137632
  C     -3.383036    0.471413   -0.284533
  C     -3.216842   -0.888243   -0.303382
  C     -1.923793   -1.521752   -0.176454
  C     -0.815101   -0.771247   -0.015860
  C     -0.899217    0.712187    0.123573
  H     -4.371824    0.915944   -0.418606
  H     -4.096654   -1.522844   -0.443948
  H     -1.856606   -2.610080   -0.227466
  H      0.179266   -1.213382    0.064808
  H     -0.639417    0.962141    1.172781
  N     -2.383649    2.639793   -0.166403
  H     -3.292458    3.072444   -0.322445
  H     -1.543445    3.226019   -0.153211
  N      0.245420    1.420553   -0.669854
  O      0.224636    2.638073   -0.654898
  O      1.072506    0.715778   -1.178378

 Multiplicity           Mult            ....    1
 Number of Electrons    NEL             ....   72
 Basis Dimension        Dim             ....  175

ORBITAL ENERGIES
----------------

  NO   OCC          E(Eh)            E(eV)
   0   2.0000     -19.350153      -526.5444
   1   2.0000     -19.347658      -526.4765
   2   2.0000     -14.742445      -401.1623
   3   2.0000     -14.583027      -396.8243
   4   2.0000     -10.486204      -285.3441
   5   2.0000     -10.455347      -284.5045
   6   2.0000     -10.413583      -283.3680
   7   2.0000     -10.398067      -282.9458
   8   2.0000     -10.394345      -282.8445
   9   2.0000     -10.383236      -282.5422
  10   2.0000      -1.410467       -38.3808
  11   2.0000      -1.242665       -33.8146
  12   2.0000      -1.161984       -31.6192
  13   2.0000      -1.049617       -28.5615
  14   2.0000      -0.984877       -26.7999
  15   2.0000      -0.937026       -25.4978
  16   2.0000      -0.865504       -23.5516
  17   2.0000      -0.818740       -22.2790
  18   2.0000      -0.802771       -21.8445
  19   2.0000      -0.749312       -20.3898
  20   2.0000      -0.746888       -20.3238
  21   2.0000      -0.722768       -19.6675
  22   2.0000      -0.717384       -19.5210
  23   2.0000      -0.690392       -18.7865
  24   2.0000      -0.677462       -18.4347
  25   2.0000      -0.645354       -17.5610
  26   2.0000      -0.637375       -17.3439
  27   2.0000      -0.626017       -17.0348
  28   2.0000      -0.589069       -16.0294
  29   2.0000      -0.568218       -15.4620
  30   2.0000      -0.549551       -14.9540
  31   2.0000      -0.523627       -14.2486
  32   2.0000      -0.493348       -13.4247
  33   2.0000      -0.483176       -13.1479
  34   2.0000      -0.478718       -13.0266
  35   2.0000      -0.436172       -11.8688
  36   0.0000      -0.294492        -8.0135
  37   0.0000      -0.241548        -6.5728
  38   0.0000      -0.193124        -5.2552
  39   0.0000      -0.124712        -3.3936
  40   0.0000      -0.112392        -3.0583

MULLIKEN ATOMIC CHARGES
-----------------------
   0 C :   -0.054771
   1 C :    0.046364
   2 C :    0.063268
   3 C :    0.062874
   4 C :   -0.024712
   5 C :    0.196224
   6 H :    0.034358
   7 H :    0.074848
   8 H :    0.060951
   9 H :    0.081630
  10 H :    0.141669
  11 N :    0.083279
  12 H :    0.178260
  13 H :    0.183638
  14 N :    0.214406
  15 O :   -0.211825
  16 O :   -0.130461
Sum of atomic charges:    1.0000000

LOEWDIN ATOMIC CHARGES
----------------------
   0 C :    0.117501
   1 C :   -0.042960
   2 C :    0.113907
   3 C :   -0.001425
   4 C :    0.046945
   5 C :    0.016996
   6 H :    0.058509
   7 H :    0.068304
   8 H :    0.064275
   9 H :    0.064409
  10 H :    0.105908
  11 N :    0.155421
  12 H :    0.122069
  13 H :    0.100586
  14 N :    0.277346
  15 O :   -0.165375
  16 O :   -0.102419

  Mayer bond orders larger than 0.100000
B(  0-C ,  1-C ) :   1.2346 B(  0-C ,  5-C ) :   0.9649 B(  0-C , 11-N ) :   1.6238
B(  1-C ,  2-C ) :   1.5377 B(  1-C ,  6-H ) :   0.9839 B(  2-C ,  3-C ) :   1.1207
B(  2-C ,  7-H ) :   0.9674 B(  3-C ,  4-C ) :   1.7139 B(  3-C ,  8-H ) :   0.9858
B(  4-C ,  5-C ) :   1.0075 B(  4-C ,  9-H ) :   0.9612 B(  5-C , 10-H ) :   0.8424
B(  5-C , 14-N ) :   0.7730 B( 11-N , 12-H ) :   0.9164 B( 11-N , 13-H ) :   0.8839
B( 14-N , 15-O ) :   1.4946 B( 14-N , 16-O ) :   1.6519 B( 15-O , 16-O ) :   0.2894

Dispersion correction           -0.026919145
FINAL SINGLE POINT ENERGY      -491.827254179848

DIPOLE MOMENT
-------------
                                X             Y             Z
Electronic contribution:      4.05792       2.20981      -1.24489
Nuclear contribution   :     -6.33490      -2.27906       2.07856
                        -----------------------------------------
Total Dipole Moment    :     -2.27698      -0.06925       0.83366
                        -----------------------------------------
Magnitude (a.u.)       :      2.42579
Magnitude (Debye)      :      6.16586

Dispersion correction in the Hessian             ... Starting D4

VIBRATIONAL FREQUENCIES
-----------------------

Scaling factor for frequencies =  1.000000000  (already applied!)

   0:         0.00 cm**-1
   1:         0.00 cm**-1
   2:         0.00 cm**-1
   3:         0.00 cm**-1
   4:         0.00 cm**-1
   5:         0.00 cm**-1
   6:        55.33 cm**-1
   7:        73.76 cm**-1
   8:       204.28 cm**-1
   9:       277.64 cm**-1
  10:       340.42 cm**-1
  11:       390.01 cm**-1
  12:       429.88 cm**-1
  13:       459.71 cm**-1
  14:       525.11 cm**-1
  15:       547.35 cm**-1
  16:       614.33 cm**-1
  17:       624.67 cm**-1
  18:       684.22 cm**-1
  19:       749.66 cm**-1
  20:       762.82 cm**-1
  21:       800.86 cm**-1
  22:       840.60 cm**-1
  23:       873.17 cm**-1
  24:       910.99 cm**-1
  25:       955.78 cm**-1
  26:      1000.04 cm**-1
  27:      1018.12 cm**-1
  28:      1039.27 cm**-1
  29:      1050.51 cm**-1
  30:      1098.95 cm**-1
  31:      1179.38 cm**-1
  32:      1189.65 cm**-1
  33:      1198.48 cm**-1
  34:      1289.55 cm**-1
  35:      1364.72 cm**-1
  36:      1395.49 cm**-1
  37:      1429.19 cm**-1
  38:      1464.17 cm**-1
  39:      1522.76 cm**-1
  40:      1597.04 cm**-1
  41:      1661.72 cm**-1
  42:      1709.88 cm**-1
  43:      1756.06 cm**-1
  44:      3010.15 cm**-1
  45:      3195.21 cm**-1
  46:      3205.78 cm**-1
  47:      3216.23 cm**-1
  48:      3230.83 cm**-1
  49:      3437.26 cm**-1
  50:      3603.12 cm**-1

IR SPECTRUM
-----------

 Mode   freq       eps      Int      T**2         TX        TY        TZ
       cm**-1   L/(mol*cm) km/mol    a.u.
----------------------------------------------------------------------------
  6:     55.33   0.000055    0.28  0.000313  (-0.010172 -0.009122 -0.011228)
  7:     73.76   0.000769    3.89  0.003253  ( 0.023375  0.035338  0.038181)
  8:    204.28   0.000388    1.96  0.000593  ( 0.005624  0.015530 -0.017883)
  9:    277.64   0.001924    9.72  0.002163  ( 0.039609 -0.021232 -0.011952)
 10:    340.42   0.000529    2.67  0.000485  ( 0.017096 -0.003882  0.013310)
 11:    390.01   0.000646    3.26  0.000517  ( 0.019384 -0.008484 -0.008316)
 12:    429.88   0.000981    4.96  0.000712  ( 0.008129 -0.023246 -0.010275)
 13:    459.71   0.000392    1.98  0.000266  (-0.002326 -0.004494 -0.015513)
 14:    525.11   0.001440    7.28  0.000856  (-0.002326  0.020237 -0.020995)
 15:    547.35   0.003038   15.35  0.001732  ( 0.021014 -0.002051 -0.035861)
 16:    614.33   0.004562   23.05  0.002317  ( 0.012278  0.008762 -0.045715)
 17:    624.67   0.000920    4.65  0.000459  ( 0.015221  0.014051 -0.005513)
 18:    684.22   0.000213    1.08  0.000097  (-0.003114 -0.000026 -0.009348)
 19:    749.66   0.033025  166.89  0.013747  (-0.017054  0.046245  0.106386)
 20:    762.82   0.007499   37.90  0.003068  ( 0.004606 -0.002112 -0.055154)
 21:    800.86   0.003231   16.33  0.001259  ( 0.000165 -0.015992  0.031671)
 22:    840.60   0.007924   40.04  0.002942  ( 0.037970  0.013454 -0.036315)
 23:    873.17   0.011412   57.67  0.004079  ( 0.059711  0.016884 -0.015107)
 24:    910.99   0.002048   10.35  0.000701  ( 0.012154  0.004250 -0.023145)
 25:    955.78   0.001791    9.05  0.000585  (-0.019609 -0.007914  0.011730)
 26:   1000.04   0.001971    9.96  0.000615  (-0.016883  0.018124 -0.001212)
 27:   1018.12   0.000114    0.58  0.000035  (-0.005810  0.000978 -0.000544)
 28:   1039.27   0.000254    1.28  0.000076  (-0.006543 -0.002017  0.005426)
 29:   1050.51   0.000248    1.26  0.000074  ( 0.002123 -0.002241 -0.008015)
 30:   1098.95   0.002101   10.62  0.000596  (-0.020092  0.013687  0.002336)
 31:   1179.38   0.005404   27.31  0.001430  ( 0.027771  0.019559 -0.016616)
 32:   1189.65   0.000206    1.04  0.000054  ( 0.000927 -0.000324  0.007290)
 33:   1198.48   0.004988   25.20  0.001299  (-0.024731  0.026194  0.000960)
 34:   1289.55   0.001140    5.76  0.000276  ( 0.005777 -0.015570  0.000280)
 35:   1364.72   0.000169    0.85  0.000039  (-0.002401  0.000814  0.005672)
 36:   1395.49   0.028585  144.46  0.006392  ( 0.055157  0.051888 -0.025645)
 37:   1429.19   0.005064   25.59  0.001106  ( 0.031395  0.008919 -0.006369)
 38:   1464.17   0.011454   57.88  0.002441  (-0.000296 -0.048796 -0.007748)
 39:   1522.76   0.008614   43.53  0.001765  (-0.033186 -0.023991  0.009405)
 40:   1597.04   0.021438  108.34  0.004189  (-0.032068  0.055855 -0.006396)
 41:   1661.72   0.048923  247.23  0.009187  (-0.035999  0.088798 -0.002522)
 42:   1709.88   0.023778  120.16  0.004340  ( 0.020536  0.062476  0.003825)
 43:   1756.06   0.044147  223.10  0.007845  (-0.039153  0.075258  0.025463)
 44:   3010.15   0.005488   27.73  0.000569  ( 0.009561  0.000239  0.021851)
 45:   3195.21   0.000371    1.88  0.000036  (-0.004416  0.004064 -0.000492)
 46:   3205.78   0.000706    3.57  0.000069  ( 0.007161  0.004004  0.001176)
 47:   3216.23   0.001628    8.23  0.000158  (-0.011440 -0.005035 -0.001327)
 48:   3230.83   0.003155   15.94  0.000305  (-0.012901  0.011758 -0.000169)
 49:   3437.26   0.057468  290.42  0.005217  ( 0.025113  0.067486 -0.005693)
 50:   3603.12   0.033627  169.94  0.002912  (-0.051096  0.017045 -0.003323)

--------------------------
THERMOCHEMISTRY AT 298.15K
--------------------------

Temperature         ... 298.15 K
Pressure            ... 1.00 atm
Total Mass          ... 139.13 AMU

Throughout the following assumptions are being made:
  (1) The electronic state is orbitally nondegenerate
  (2) There are no thermally accessible electronically excited states
  (3) Hindered rotations indicated by low frequency modes are not
      treated as such but are treated as vibrations and this may
      cause some error
  (4) All equations used are the standard statistical mechanics
      equations for an ideal gas
  (5) All vibrations are strictly harmonic

freq.      55.33  E(vib)   ...       0.52
freq.      73.76  E(vib)   ...       0.49
freq.     204.28  E(vib)   ...       0.35
freq.     277.64  E(vib)   ...       0.28
freq.     340.42  E(vib)   ...       0.23
freq.     390.01  E(vib)   ...       0.20
freq.     429.88  E(vib)   ...       0.18
freq.     459.71  E(vib)   ...       0.16
freq.     525.11  E(vib)   ...       0.13
freq.     547.35  E(vib)   ...       0.12
freq.     614.33  E(vib)   ...       0.10
freq.     624.67  E(vib)   ...       0.09
freq.     684.22  E(vib)   ...       0.07
freq.     749.66  E(vib)   ...       0.06
freq.     762.82  E(vib)   ...       0.06
freq.     800.86  E(vib)   ...       0.05
freq.     840.60  E(vib)   ...       0.04
freq.     873.17  E(vib)   ...       0.04
freq.     910.99  E(vib)   ...       0.03
freq.     955.78  E(vib)   ...       0.03
freq.    1000.04  E(vib)   ...       0.02
freq.    1018.12  E(vib)   ...       0.02
freq.    1039.27  E(vib)   ...       0.02
freq.    1050.51  E(vib)   ...       0.02
freq.    1098.95  E(vib)   ...       0.02
freq.    1179.38  E(vib)   ...       0.01
freq.    1189.65  E(vib)   ...       0.01
freq.    1198.48  E(vib)   ...       0.01
freq.    1289.55  E(vib)   ...       0.01
freq.    1364.72  E(vib)   ...       0.01
freq.    1395.49  E(vib)   ...       0.00
freq.    1429.19  E(vib)   ...       0.00
freq.    1464.17  E(vib)   ...       0.00
freq.    1522.76  E(vib)   ...       0.00
freq.    1597.04  E(vib)   ...       0.00
freq.    1661.72  E(vib)   ...       0.00
freq.    1709.88  E(vib)   ...       0.00
freq.    1756.06  E(vib)   ...       0.00
freq.    3010.15  E(vib)   ...       0.00
freq.    3195.21  E(vib)   ...       0.00
freq.    3205.78  E(vib)   ...       0.00
freq.    3216.23  E(vib)   ...       0.00
freq.    3230.83  E(vib)   ...       0.00
freq.    3437.26  E(vib)   ...       0.00
freq.    3603.12  E(vib)   ...       0.00

------------
INNER ENERGY
------------

The inner energy is: U= E(el) + E(ZPE) + E(vib) + E(rot) + E(trans)
    E(el)   - is the total energy from the electronic structure calculation
              = E(kin-el) + E(nuc-el) + E(el-el) + E(nuc-nuc)
    E(ZPE)  - the the zero temperature vibrational energy from the frequency calculation
    E(vib)  - the the finite temperature correction to E(ZPE) due to population
              of excited vibrational states
    E(rot)  - is the rotational thermal energy
    E(trans)- is the translational thermal energy

Summary of contributions to the inner energy U:
Electronic energy                ...   -491.82725418 Eh
Zero point energy                ...      0.13209760 Eh      82.89 kcal/mol
Thermal vibrational correction   ...      0.00540681 Eh       3.39 kcal/mol
Thermal rotational correction    ...      0.00141627 Eh       0.89 kcal/mol
Thermal translational correction ...      0.00141627 Eh       0.89 kcal/mol
-----------------------------------------------------------------------
Total thermal energy                   -491.68691722 Eh

Summary of corrections to the electronic energy:
(perhaps to be used in another calculation)
Total thermal correction                  0.00823936 Eh       5.17 kcal/mol
Non-thermal (ZPE) correction              0.13209760 Eh      82.89 kcal/mol
-----------------------------------------------------------------------
Total correction                          0.14033696 Eh      88.06 kcal/mol

--------
ENTHALPY
--------

The enthalpy is H = U + kB*T
                kB is Boltzmann's constant
Total free energy                 ...   -491.68691722 Eh
Thermal Enthalpy correction       ...      0.00094421 Eh       0.59 kcal/mol
-----------------------------------------------------------------------
Total Enthalpy                    ...   -491.68597301 Eh

Note: Only C1 symmetry has been detected, increase convergence thresholds
      if your molecule has a higher symmetry. Symmetry factor of 1.0 is
      used for the rotational entropy correction.

Note: Rotational entropy computed according to Herzberg
Infrared and Raman Spectra, Chapter V,1, Van Nostrand Reinhold, 1945
Point Group:  C1, Symmetry Number:   1
Rotational constants in cm-1:     0.073033     0.042602     0.028163

Vibrational entropy computed according to the QRRHO of S. Grimme
Chem.Eur.J. 2012 18 9955

-------
ENTROPY
-------

The entropy contributions are T*S = T*(S(el)+S(vib)+S(rot)+S(trans))
     S(el)   - electronic entropy
     S(vib)  - vibrational entropy
     S(rot)  - rotational entropy
     S(trans)- translational entropy
The entropies will be listed as multiplied by the temperature to get
units of energy

Electronic entropy                ...      0.00000000 Eh      0.00 kcal/mol
Vibrational entropy               ...      0.00886010 Eh      5.56 kcal/mol
Rotational entropy                ...      0.01392129 Eh      8.74 kcal/mol
Translational entropy             ...      0.01933899 Eh     12.14 kcal/mol
-----------------------------------------------------------------------
Final entropy term                ...      0.04212039 Eh     26.43 kcal/mol

In case the symmetry of your molecule has not been determined correctly
or in case you have a reason to use a different symmetry number we print
out the resulting rotational entropy values for sn=1,12 :
 --------------------------------------------------------
|  sn= 1 | S(rot)=       0.01392129 Eh      8.74 kcal/mol|
|  sn= 2 | S(rot)=       0.01326684 Eh      8.33 kcal/mol|
|  sn= 3 | S(rot)=       0.01288401 Eh      8.08 kcal/mol|
|  sn= 4 | S(rot)=       0.01261238 Eh      7.91 kcal/mol|
|  sn= 5 | S(rot)=       0.01240169 Eh      7.78 kcal/mol|
|  sn= 6 | S(rot)=       0.01222955 Eh      7.67 kcal/mol|
|  sn= 7 | S(rot)=       0.01208400 Eh      7.58 kcal/mol|
|  sn= 8 | S(rot)=       0.01195793 Eh      7.50 kcal/mol|
|  sn= 9 | S(rot)=       0.01184672 Eh      7.43 kcal/mol|
|  sn=10 | S(rot)=       0.01174724 Eh      7.37 kcal/mol|
|  sn=11 | S(rot)=       0.01165725 Eh      7.32 kcal/mol|
|  sn=12 | S(rot)=       0.01157509 Eh      7.26 kcal/mol|
 --------------------------------------------------------

-------------------
GIBBS FREE ENERGY
-------------------

                             ****ORCA TERMINATED NORMALLY****
TOTAL RUN TIME: 0 days 0 hours 59 minutes 58 seconds 94 msec
