                         Program Version 5.0.4 -  RELEASE  -
|  1> !B3LYP DEF2-SVP OPT FREQ D4 SOSCF
|  2>
|  3> %geom
|  4> maxIter 1000
|  5> end
|  6>
|  7> * xyz 1 1
|  8>   C   -2.31926183601002      1.31740881426733     -0.55885534408746
|  9>   C   -3.44802998747400      0.48797910960179     -0.88684395656102
| 10>   C   -3.37573380995345     -0.88491716882564     -0.78972214045566
| 11>   C   -2.18293783201266     -1.50510353288514     -0.36363260235747
| 12>   C   -1.05938705280382     -0.72577239886675     -0.03289016007184
| 13>   C   -1.11371767177654      0.65276284681663     -0.12242531260864
| 14>   H   -4.36793529130609      0.97621531685379     -1.21743601826740
| 15>   H   -4.24605163785123     -1.49307777468352     -1.04494523894387
| 16>   H   -2.12439293761601     -2.59288755109842     -0.28908906318476
| 17>   H   -0.12786431916493     -1.18543531826517      0.29910165612226
| 18>   H   3.18823592144982     -0.37514706619395      9.94807306508531
| 19>   N   -2.41615738292250      2.64012088302028     -0.66416404177235
| 20>   H   -3.28006041093066      3.07418273401658     -0.97703739517686
| 21>   H   -1.58962589691273      3.19892939521118     -0.42414746599544
| 22>   N   0.09763478984950      1.41053290352076      0.24365033327486
| 23>   O   0.05106997157202      2.63701296264453      0.15709769298482
| 24>   O   1.06418538386336      0.78084584486570      0.60911599201553
| 25> **                         ****END OF INPUT****
 Total Charge           Charge          ....    1
 Multiplicity           Mult            ....    1
 Number of Electrons    NEL             ....   72
Dispersion correction           -0.026254771
FINAL SINGLE POINT ENERGY      -491.663035022052
Dispersion correction            ... Starting D4
Dispersion correction           -0.026255053
FINAL SINGLE POINT ENERGY      -491.663059710257
Dispersion correction            ... Starting D4
Dispersion correction           -0.026254372
FINAL SINGLE POINT ENERGY      -491.663085304467
Dispersion correction            ... Starting D4
FINAL SINGLE POINT ENERGY      -491.663113339545
FINAL SINGLE POINT ENERGY      -491.663150807397
FINAL SINGLE POINT ENERGY      -491.663200458099
FINAL SINGLE POINT ENERGY      -491.663236749145
FINAL SINGLE POINT ENERGY      -491.663268465101
FINAL SINGLE POINT ENERGY      -491.663316258040
FINAL SINGLE POINT ENERGY      -491.663347550265
FINAL SINGLE POINT ENERGY      -491.664575134386
FINAL SINGLE POINT ENERGY      -491.664584578541
FINAL SINGLE POINT ENERGY      -491.664593953547
FINAL SINGLE POINT ENERGY      -491.664603287210
FINAL SINGLE POINT ENERGY      -491.664612572629
FINAL SINGLE POINT ENERGY      -491.664621838959
FINAL SINGLE POINT ENERGY      -491.664631015616
Dispersion correction           -0.026272291
FINAL SINGLE POINT ENERGY      -491.664640131093
Dispersion correction            ... Starting D4
Dispersion correction           -0.026272392
FINAL SINGLE POINT ENERGY      -491.664649178647
Dispersion correction            ... Starting D4
                    ***********************HURRAY********************

CARTESIAN COORDINATES (ANGSTROEM)
---------------------------------
  C     -2.590968    1.357076   -1.296371
  C     -3.507476    0.372408   -1.804575
  C     -3.452367   -0.938359   -1.381605
  C     -2.488175   -1.339806   -0.434438
  C     -1.575524   -0.403938    0.084346
  C     -1.615631    0.915210   -0.328272
  H     -4.251952    0.691259   -2.538002
  H     -4.159495   -1.667386   -1.782782
  H     -2.444374   -2.377900   -0.098892
  H     -0.821789   -0.693006    0.817474
  H      8.829763   -2.559705   16.908958
  N     -2.666775    2.615838   -1.722504
  H     -3.366826    2.891675   -2.405141
  H     -1.995831    3.289827   -1.337554
  N     -0.630514    1.844536    0.255705
  O     -0.665197    3.018056   -0.112656
  O      0.153102    1.397864    1.062158

 Multiplicity           Mult            ....    1
 Number of Electrons    NEL             ....   72
 Basis Dimension        Dim             ....  175

ORBITAL ENERGIES
----------------

  NO   OCC          E(Eh)            E(eV)
   0   2.0000     -19.295375      -525.0539
   1   2.0000     -19.294971      -525.0429
   2   2.0000     -14.695347      -399.8807
   3   2.0000     -14.539786      -395.6477
   4   2.0000     -10.433984      -283.9231
   5   2.0000     -10.401699      -283.0446
   6   2.0000     -10.369367      -282.1648
   7   2.0000     -10.368585      -282.1435
   8   2.0000     -10.365652      -282.0637
   9   2.0000     -10.361368      -281.9472
  10   2.0000      -1.357455       -36.9382
  11   2.0000      -1.184789       -32.2397
  12   2.0000      -1.113200       -30.2917
  13   2.0000      -1.016307       -27.6551
  14   2.0000      -0.948439       -25.8083
  15   2.0000      -0.898665       -24.4539
  16   2.0000      -0.838150       -22.8072
  17   2.0000      -0.787041       -21.4165
  18   2.0000      -0.760245       -20.6873
  19   2.0000      -0.711957       -19.3733
  20   2.0000      -0.684053       -18.6140
  21   2.0000      -0.677268       -18.4294
  22   2.0000      -0.675025       -18.3684
  23   2.0000      -0.645753       -17.5718
  24   2.0000      -0.628633       -17.1060
  25   2.0000      -0.601947       -16.3798
  26   2.0000      -0.597884       -16.2693
  27   2.0000      -0.570205       -15.5161
  28   2.0000      -0.542425       -14.7601
  29   2.0000      -0.524070       -14.2607
  30   2.0000      -0.494479       -13.4555
  31   2.0000      -0.443177       -12.0595
  32   2.0000      -0.442307       -12.0358
  33   2.0000      -0.433333       -11.7916
  34   2.0000      -0.429112       -11.6767
  35   2.0000      -0.366549        -9.9743
  36   0.0000      -0.361621        -9.8402
  37   0.0000      -0.220060        -5.9881
  38   0.0000      -0.166781        -4.5384
  39   0.0000      -0.142868        -3.8876
  40   0.0000      -0.081171        -2.2088

MULLIKEN ATOMIC CHARGES
-----------------------
   0 C :   -0.034889
   1 C :    0.012522
   2 C :    0.065348
   3 C :    0.071655
   4 C :   -0.009561
   5 C :    0.181875
   6 H :    0.023579
   7 H :    0.051388
   8 H :    0.058159
   9 H :    0.053495
  10 H :    0.262176
  11 N :    0.097524
  12 H :    0.163386
  13 H :    0.180084
  14 N :    0.255714
  15 O :   -0.254510
  16 O :   -0.177945
Sum of atomic charges:    1.0000000

LOEWDIN ATOMIC CHARGES
----------------------
   0 C :    0.073948
   1 C :    0.012964
   2 C :    0.030162
   3 C :    0.062052
   4 C :    0.041768
   5 C :   -0.021389
   6 H :    0.052654
   7 H :    0.059681
   8 H :    0.059226
   9 H :    0.063511
  10 H :    0.262176
  11 N :    0.152711
  12 H :    0.111488
  13 H :    0.090533
  14 N :    0.282902
  15 O :   -0.193732
  16 O :   -0.140654

  Mayer bond orders larger than 0.100000
B(  0-C ,  1-C ) :   1.1716 B(  0-C ,  5-C ) :   1.1519 B(  0-C , 11-N ) :   1.5318
B(  1-C ,  2-C ) :   1.4631 B(  1-C ,  6-H ) :   0.9897 B(  1-C , 10-H ) :   0.1503
B(  2-C ,  3-C ) :   1.2716 B(  2-C ,  7-H ) :   0.9850 B(  3-C ,  4-C ) :   1.2468
B(  3-C ,  8-H ) :   0.9852 B(  3-C , 10-H ) :   0.2367 B(  4-C ,  5-C ) :   1.4688
B(  4-C ,  9-H ) :   0.9796 B(  5-C , 10-H ) :   0.1089 B(  5-C , 14-N ) :   0.8746
B( 10-H , 11-N ) :   0.2539 B( 11-N , 12-H ) :   0.9087 B( 11-N , 13-H ) :   0.8686
B( 13-H , 15-O ) :   0.1007 B( 14-N , 15-O ) :   1.4438 B( 14-N , 16-O ) :   1.5914
B( 15-O , 16-O ) :   0.2828

Dispersion correction           -0.026272385
FINAL SINGLE POINT ENERGY      -491.664649186084

DIPOLE MOMENT
-------------
                                X             Y             Z
Electronic contribution:     -0.79324       4.16690      -4.83382
Nuclear contribution   :      3.93475      -6.58991      11.71913
                        -----------------------------------------
Total Dipole Moment    :      3.14151      -2.42300       6.88531
                        -----------------------------------------
Magnitude (a.u.)       :      7.94654
Magnitude (Debye)      :     20.19851

Dispersion correction in the Hessian             ... Starting D4

VIBRATIONAL FREQUENCIES
-----------------------

Scaling factor for frequencies =  1.000000000  (already applied!)

   0:         0.00 cm**-1
   1:         0.00 cm**-1
   2:         0.00 cm**-1
   3:         0.00 cm**-1
   4:         0.00 cm**-1
   5:         0.00 cm**-1
   6:        -3.79 cm**-1 ***imaginary mode***
   7:         2.92 cm**-1
   8:         7.80 cm**-1
   9:        61.95 cm**-1
  10:       134.28 cm**-1
  11:       233.88 cm**-1
  12:       299.96 cm**-1
  13:       382.65 cm**-1
  14:       400.25 cm**-1
  15:       414.01 cm**-1
  16:       498.36 cm**-1
  17:       543.33 cm**-1
  18:       560.73 cm**-1
  19:       592.25 cm**-1
  20:       669.72 cm**-1
  21:       676.09 cm**-1
  22:       741.78 cm**-1
  23:       776.28 cm**-1
  24:       797.79 cm**-1
  25:       840.76 cm**-1
  26:       889.32 cm**-1
  27:       895.91 cm**-1
  28:      1004.48 cm**-1
  29:      1017.07 cm**-1
  30:      1033.74 cm**-1
  31:      1053.62 cm**-1
  32:      1107.02 cm**-1
  33:      1163.78 cm**-1
  34:      1180.91 cm**-1
  35:      1300.43 cm**-1
  36:      1357.37 cm**-1
  37:      1399.62 cm**-1
  38:      1416.95 cm**-1
  39:      1489.36 cm**-1
  40:      1504.70 cm**-1
  41:      1552.93 cm**-1
  42:      1590.93 cm**-1
  43:      1654.29 cm**-1
  44:      1700.30 cm**-1
  45:      3196.98 cm**-1
  46:      3211.67 cm**-1
  47:      3220.72 cm**-1
  48:      3233.74 cm**-1
  49:      3405.50 cm**-1
  50:      3627.95 cm**-1

IR SPECTRUM
-----------

 Mode   freq       eps      Int      T**2         TX        TY        TZ
       cm**-1   L/(mol*cm) km/mol    a.u.
----------------------------------------------------------------------------
  7:      2.92   0.000000    0.00  0.000000  ( 0.000000  0.000000  0.000000)
  8:      7.80   0.013996   70.73  0.560080  ( 0.453027 -0.032464  0.594805)
  9:     61.95   0.000005    0.03  0.000026  (-0.002500  0.000789  0.004355)
 10:    134.28   0.000697    3.52  0.001620  (-0.026191  0.008698  0.029297)
 11:    233.88   0.000466    2.36  0.000622  ( 0.015883 -0.005298 -0.018483)
 12:    299.96   0.000503    2.54  0.000523  ( 0.001656 -0.022621 -0.002904)
 13:    382.65   0.006335   32.02  0.005167  (-0.048680  0.002721 -0.052817)
 14:    400.25   0.003853   19.47  0.003004  (-0.028023 -0.003706 -0.046956)
 15:    414.01   0.000971    4.91  0.000732  ( 0.017401 -0.005739 -0.019911)
 16:    498.36   0.001098    5.55  0.000688  ( 0.016833 -0.005652 -0.019302)
 17:    543.33   0.000353    1.78  0.000203  ( 0.000484 -0.011827  0.007902)
 18:    560.73   0.015572   78.69  0.008666  (-0.044322  0.023648 -0.078374)
 19:    592.25   0.012440   62.87  0.006555  ( 0.052019 -0.017253 -0.059591)
 20:    669.72   0.002579   13.03  0.001202  ( 0.012694 -0.014691  0.028717)
 21:    676.09   0.010140   51.24  0.004680  (-0.044035  0.014557  0.050292)
 22:    741.78   0.003646   18.42  0.001534  (-0.025201  0.008385  0.028780)
 23:    776.28   0.008339   42.14  0.003352  (-0.037502  0.012485  0.042310)
 24:    797.79   0.009167   46.33  0.003586  (-0.038647  0.012918  0.043879)
 25:    840.76   0.014747   74.53  0.005474  ( 0.031249 -0.021798  0.063419)
 26:    889.32   0.005794   29.28  0.002033  ( 0.009263  0.038095 -0.022270)
 27:    895.91   0.000015    0.07  0.000005  ( 0.001257 -0.000522 -0.001812)
 28:   1004.48   0.000349    1.76  0.000108  (-0.006841  0.002292  0.007501)
 29:   1017.07   0.004451   22.49  0.001366  (-0.022751  0.008855 -0.027740)
 30:   1033.74   0.000078    0.39  0.000023  ( 0.003135 -0.001132 -0.003518)
 31:   1053.62   0.006764   34.18  0.002003  ( 0.018265 -0.011247  0.039285)
 32:   1107.02   0.006933   35.04  0.001954  ( 0.029952  0.021229  0.024628)
 33:   1163.78   0.033998  171.81  0.009117  ( 0.057049 -0.009302  0.075996)
 34:   1180.91   0.004764   24.08  0.001259  (-0.021395  0.005112 -0.027840)
 35:   1300.43   0.004465   22.56  0.001071  (-0.011512  0.016749 -0.025659)
 36:   1357.37   0.025839  130.58  0.005941  (-0.018390 -0.072185  0.019790)
 37:   1399.62   0.033314  168.35  0.007428  ( 0.031844 -0.024061  0.076385)
 38:   1416.95   0.008977   45.37  0.001977  ( 0.009390  0.040091 -0.016780)
 39:   1489.36   0.039155  197.87  0.008204  ( 0.035731 -0.020457  0.080678)
 40:   1504.70   0.005535   27.97  0.001148  (-0.023333 -0.015192 -0.019307)
 41:   1552.93   0.002410   12.18  0.000484  (-0.004418  0.017541 -0.012537)
 42:   1590.93   0.071276  360.20  0.013981  (-0.046713  0.082461 -0.070703)
 43:   1654.29   0.211586  1069.27  0.039913  (-0.098246  0.041092 -0.169034)
 44:   1700.30   0.086489  437.08  0.015874  (-0.063966  0.055119 -0.093509)
 45:   3196.98   0.000077    0.39  0.000007  ( 0.001889  0.001882  0.000600)
 46:   3211.67   0.000383    1.94  0.000037  ( 0.002710 -0.001024  0.005371)
 47:   3220.72   0.000862    4.35  0.000083  (-0.006171 -0.005746 -0.003521)
 48:   3233.74   0.000291    1.47  0.000028  ( 0.003496 -0.003710 -0.001461)
 49:   3405.50   0.293722  1484.35  0.026915  ( 0.056087 -0.085742  0.128132)
 50:   3627.95   0.096074  485.52  0.008264  ( 0.057157 -0.018904  0.068115)

--------------------------
THERMOCHEMISTRY AT 298.15K
--------------------------

Temperature         ... 298.15 K
Pressure            ... 1.00 atm
Total Mass          ... 139.13 AMU

Throughout the following assumptions are being made:
  (1) The electronic state is orbitally nondegenerate
  (2) There are no thermally accessible electronically excited states
  (3) Hindered rotations indicated by low frequency modes are not
      treated as such but are treated as vibrations and this may
      cause some error
  (4) All equations used are the standard statistical mechanics
      equations for an ideal gas
  (5) All vibrations are strictly harmonic

freq.       2.92  E(vib)   ...       0.59
freq.       7.80  E(vib)   ...       0.58
freq.      61.95  E(vib)   ...       0.51
freq.     134.28  E(vib)   ...       0.42
freq.     233.88  E(vib)   ...       0.32
freq.     299.96  E(vib)   ...       0.26
freq.     382.65  E(vib)   ...       0.20
freq.     400.25  E(vib)   ...       0.19
freq.     414.01  E(vib)   ...       0.19
freq.     498.36  E(vib)   ...       0.14
freq.     543.33  E(vib)   ...       0.12
freq.     560.73  E(vib)   ...       0.11
freq.     592.25  E(vib)   ...       0.10
freq.     669.72  E(vib)   ...       0.08
freq.     676.09  E(vib)   ...       0.08
freq.     741.78  E(vib)   ...       0.06
freq.     776.28  E(vib)   ...       0.05
freq.     797.79  E(vib)   ...       0.05
freq.     840.76  E(vib)   ...       0.04
freq.     889.32  E(vib)   ...       0.04
freq.     895.91  E(vib)   ...       0.03
freq.    1004.48  E(vib)   ...       0.02
freq.    1017.07  E(vib)   ...       0.02
freq.    1033.74  E(vib)   ...       0.02
freq.    1053.62  E(vib)   ...       0.02
freq.    1107.02  E(vib)   ...       0.02
freq.    1163.78  E(vib)   ...       0.01
freq.    1180.91  E(vib)   ...       0.01
freq.    1300.43  E(vib)   ...       0.01
freq.    1357.37  E(vib)   ...       0.01
freq.    1399.62  E(vib)   ...       0.00
freq.    1416.95  E(vib)   ...       0.00
freq.    1489.36  E(vib)   ...       0.00
freq.    1504.70  E(vib)   ...       0.00
freq.    1552.93  E(vib)   ...       0.00
freq.    1590.93  E(vib)   ...       0.00
freq.    1654.29  E(vib)   ...       0.00
freq.    1700.30  E(vib)   ...       0.00
freq.    3196.98  E(vib)   ...       0.00
freq.    3211.67  E(vib)   ...       0.00
freq.    3220.72  E(vib)   ...       0.00
freq.    3233.74  E(vib)   ...       0.00
freq.    3405.50  E(vib)   ...       0.00
freq.    3627.95  E(vib)   ...       0.00

------------
INNER ENERGY
------------

The inner energy is: U= E(el) + E(ZPE) + E(vib) + E(rot) + E(trans)
    E(el)   - is the total energy from the electronic structure calculation
              = E(kin-el) + E(nuc-el) + E(el-el) + E(nuc-nuc)
    E(ZPE)  - the the zero temperature vibrational energy from the frequency calculation
    E(vib)  - the the finite temperature correction to E(ZPE) due to population
              of excited vibrational states
    E(rot)  - is the rotational thermal energy
    E(trans)- is the translational thermal energy

Summary of contributions to the inner energy U:
Electronic energy                ...   -491.66464919 Eh
Zero point energy                ...      0.12038764 Eh      75.54 kcal/mol
Thermal vibrational correction   ...      0.00691261 Eh       4.34 kcal/mol
Thermal rotational correction    ...      0.00141627 Eh       0.89 kcal/mol
Thermal translational correction ...      0.00141627 Eh       0.89 kcal/mol
-----------------------------------------------------------------------
Total thermal energy                   -491.53451638 Eh

Summary of corrections to the electronic energy:
(perhaps to be used in another calculation)
Total thermal correction                  0.00974516 Eh       6.12 kcal/mol
Non-thermal (ZPE) correction              0.12038764 Eh      75.54 kcal/mol
-----------------------------------------------------------------------
Total correction                          0.13013280 Eh      81.66 kcal/mol

--------
ENTHALPY
--------

The enthalpy is H = U + kB*T
                kB is Boltzmann's constant
Total free energy                 ...   -491.53451638 Eh
Thermal Enthalpy correction       ...      0.00094421 Eh       0.59 kcal/mol
-----------------------------------------------------------------------
Total Enthalpy                    ...   -491.53357218 Eh

Note: Only C1 symmetry has been detected, increase convergence thresholds
      if your molecule has a higher symmetry. Symmetry factor of 1.0 is
      used for the rotational entropy correction.

Note: Rotational entropy computed according to Herzberg
Infrared and Raman Spectra, Chapter V,1, Van Nostrand Reinhold, 1945
Point Group:  C1, Symmetry Number:   1
Rotational constants in cm-1:     0.050365     0.023232     0.016225

Vibrational entropy computed according to the QRRHO of S. Grimme
Chem.Eur.J. 2012 18 9955

-------
ENTROPY
-------

The entropy contributions are T*S = T*(S(el)+S(vib)+S(rot)+S(trans))
     S(el)   - electronic entropy
     S(vib)  - vibrational entropy
     S(rot)  - rotational entropy
     S(trans)- translational entropy
The entropies will be listed as multiplied by the temperature to get
units of energy

Electronic entropy                ...      0.00000000 Eh      0.00 kcal/mol
Vibrational entropy               ...      0.01372912 Eh      8.62 kcal/mol
Rotational entropy                ...      0.01464333 Eh      9.19 kcal/mol
Translational entropy             ...      0.01933899 Eh     12.14 kcal/mol
-----------------------------------------------------------------------
Final entropy term                ...      0.04771144 Eh     29.94 kcal/mol

In case the symmetry of your molecule has not been determined correctly
or in case you have a reason to use a different symmetry number we print
out the resulting rotational entropy values for sn=1,12 :
 --------------------------------------------------------
|  sn= 1 | S(rot)=       0.01464333 Eh      9.19 kcal/mol|
|  sn= 2 | S(rot)=       0.01398887 Eh      8.78 kcal/mol|
|  sn= 3 | S(rot)=       0.01360604 Eh      8.54 kcal/mol|
|  sn= 4 | S(rot)=       0.01333442 Eh      8.37 kcal/mol|
|  sn= 5 | S(rot)=       0.01312373 Eh      8.24 kcal/mol|
|  sn= 6 | S(rot)=       0.01295158 Eh      8.13 kcal/mol|
|  sn= 7 | S(rot)=       0.01280604 Eh      8.04 kcal/mol|
|  sn= 8 | S(rot)=       0.01267996 Eh      7.96 kcal/mol|
|  sn= 9 | S(rot)=       0.01256875 Eh      7.89 kcal/mol|
|  sn=10 | S(rot)=       0.01246927 Eh      7.82 kcal/mol|
|  sn=11 | S(rot)=       0.01237928 Eh      7.77 kcal/mol|
|  sn=12 | S(rot)=       0.01229713 Eh      7.72 kcal/mol|
 --------------------------------------------------------

-------------------
GIBBS FREE ENERGY
-------------------

                             ****ORCA TERMINATED NORMALLY****
TOTAL RUN TIME: 0 days 8 hours 5 minutes 8 seconds 845 msec
