                         Program Version 5.0.4 -  RELEASE  -
|  1> !B3LYP DEF2-SVP OPT FREQ D4 SOSCF
|  2>
|  3> * xyz 0 1
|  4>    C       -3.91938        0.92796       -0.12671
|  5>    C       -5.15778        0.26664       -0.27333
|  6>    C       -5.24084       -1.12289       -0.13918
|  7>    C       -4.09642       -1.87090        0.14228
|  8>    C       -2.86478       -1.23137        0.29051
|  9>    C       -2.77472        0.15728        0.15733
| 10>    C       -3.78698        2.43865       -0.26520
| 11>    H       -6.06498        0.81312       -0.49333
| 12>    H       -6.19522       -1.62052       -0.25415
| 13>    H       -4.16415       -2.94618        0.24566
| 14>    H       -1.97789       -1.81196        0.50945
| 15>    H       -1.80883        0.63095        0.27906
| 16>    O       -5.03392        3.03815       -0.52539
| 17>    H       -5.54528        3.04794        0.32647
| 18>    O       -3.25184        2.97026        0.92637
| 19>    H       -3.14977        3.94807        0.78612
| 20>    O       -2.93503        2.72815       -1.34795
| 21>    H       -1.99718        2.60906       -1.04472
| 22> **                         ****END OF INPUT****
 Total Charge           Charge          ....    0
 Multiplicity           Mult            ....    1
 Number of Electrons    NEL             ....   74
Dispersion correction           -0.029722494
FINAL SINGLE POINT ENERGY      -496.617779602433
Dispersion correction            ... Starting D4
Dispersion correction           -0.029759924
FINAL SINGLE POINT ENERGY      -496.622966549267
Dispersion correction            ... Starting D4
Dispersion correction           -0.029799384
FINAL SINGLE POINT ENERGY      -496.624448125532
Dispersion correction            ... Starting D4
FINAL SINGLE POINT ENERGY      -496.625728555277
FINAL SINGLE POINT ENERGY      -496.626778424732
FINAL SINGLE POINT ENERGY      -496.627588620634
FINAL SINGLE POINT ENERGY      -496.628116446775
FINAL SINGLE POINT ENERGY      -496.628371366809
FINAL SINGLE POINT ENERGY      -496.628436931875
FINAL SINGLE POINT ENERGY      -496.628480915934
FINAL SINGLE POINT ENERGY      -496.628558919533
FINAL SINGLE POINT ENERGY      -496.628573256019
FINAL SINGLE POINT ENERGY      -496.628574054878
FINAL SINGLE POINT ENERGY      -496.628544867959
FINAL SINGLE POINT ENERGY      -496.628535553379
FINAL SINGLE POINT ENERGY      -496.628572527548
FINAL SINGLE POINT ENERGY      -496.628566653286
Dispersion correction           -0.029845982
FINAL SINGLE POINT ENERGY      -496.628567189508
Dispersion correction            ... Starting D4
Dispersion correction           -0.029843011
FINAL SINGLE POINT ENERGY      -496.628568280878
Dispersion correction            ... Starting D4
                    ***********************HURRAY********************

CARTESIAN COORDINATES (ANGSTROEM)
---------------------------------
  C     -3.865167    0.944342   -0.075387
  C     -4.922728    0.268737   -0.702646
  C     -5.030578   -1.117981   -0.597844
  C     -4.083527   -1.842236    0.135530
  C     -3.029811   -1.171996    0.760882
  C     -2.919533    0.218640    0.657227
  C     -3.810734    2.464785   -0.195181
  H     -5.654060    0.843499   -1.274913
  H     -5.856239   -1.638508   -1.090276
  H     -4.168023   -2.929139    0.216988
  H     -2.286111   -1.733281    1.332827
  H     -2.097925    0.749481    1.139115
  O     -4.893782    3.071329    0.447200
  H     -4.930727    2.711045    1.343481
  O     -2.596084    2.902960    0.345207
  H     -2.621165    3.870680    0.295058
  O     -3.952709    2.890803   -1.518041
  H     -3.246086    2.469252   -2.025937

 Multiplicity           Mult            ....    1
 Number of Electrons    NEL             ....   74
 Basis Dimension        Dim             ....  180

ORBITAL ENERGIES
----------------

  NO   OCC          E(Eh)            E(eV)
   0   2.0000     -19.142101      -520.8830
   1   2.0000     -19.139241      -520.8052
   2   2.0000     -19.139122      -520.8020
   3   2.0000     -10.334699      -281.2214
   4   2.0000     -10.192709      -277.3577
   5   2.0000     -10.192179      -277.3433
   6   2.0000     -10.191383      -277.3216
   7   2.0000     -10.191183      -277.3162
   8   2.0000     -10.190044      -277.2852
   9   2.0000     -10.189870      -277.2805
  10   2.0000      -1.093144       -29.7460
  11   2.0000      -0.992975       -27.0202
  12   2.0000      -0.990431       -26.9510
  13   2.0000      -0.848983       -23.1020
  14   2.0000      -0.752670       -20.4812
  15   2.0000      -0.738153       -20.0862
  16   2.0000      -0.656847       -17.8737
  17   2.0000      -0.613086       -16.6829
  18   2.0000      -0.598135       -16.2761
  19   2.0000      -0.564232       -15.3535
  20   2.0000      -0.521282       -14.1848
  21   2.0000      -0.496633       -13.5141
  22   2.0000      -0.474933       -12.9236
  23   2.0000      -0.446985       -12.1631
  24   2.0000      -0.443591       -12.0707
  25   2.0000      -0.423104       -11.5133
  26   2.0000      -0.414618       -11.2823
  27   2.0000      -0.411581       -11.1997
  28   2.0000      -0.372407       -10.1337
  29   2.0000      -0.369387       -10.0515
  30   2.0000      -0.346864        -9.4386
  31   2.0000      -0.336136        -9.1467
  32   2.0000      -0.332600        -9.0505
  33   2.0000      -0.295052        -8.0288
  34   2.0000      -0.287864        -7.8332
  35   2.0000      -0.257018        -6.9938
  36   2.0000      -0.250937        -6.8283
  37   0.0000      -0.016269        -0.4427
  38   0.0000      -0.009054        -0.2464
  39   0.0000       0.050516         1.3746
  40   0.0000       0.068004         1.8505
  41   0.0000       0.085069         2.3148

MULLIKEN ATOMIC CHARGES
-----------------------
   0 C :   -0.109827
   1 C :    0.012904
   2 C :    0.021799
   3 C :    0.026754
   4 C :    0.023733
   5 C :    0.008000
   6 C :    0.305585
   7 H :   -0.008832
   8 H :   -0.014960
   9 H :   -0.015055
  10 H :   -0.016272
  11 H :   -0.011452
  12 O :   -0.237906
  13 H :    0.167957
  14 O :   -0.235347
  15 H :    0.161727
  16 O :   -0.245657
  17 H :    0.166850
Sum of atomic charges:    0.0000000

LOEWDIN ATOMIC CHARGES
----------------------
   0 C :   -0.073404
   1 C :   -0.011095
   2 C :   -0.025942
   3 C :   -0.022914
   4 C :   -0.026281
   5 C :   -0.019408
   6 C :    0.116616
   7 H :    0.031889
   8 H :    0.027654
   9 H :    0.026982
  10 H :    0.027080
  11 H :    0.029240
  12 O :   -0.102761
  13 H :    0.081529
  14 O :   -0.114588
  15 H :    0.076439
  16 O :   -0.102526
  17 H :    0.081488

  Mayer bond orders larger than 0.100000
B(  0-C ,  1-C ) :   1.3832 B(  0-C ,  5-C ) :   1.4125 B(  0-C ,  6-C ) :   0.9389
B(  1-C ,  2-C ) :   1.3787 B(  1-C ,  7-H ) :   0.9893 B(  2-C ,  3-C ) :   1.3701
B(  2-C ,  8-H ) :   0.9856 B(  3-C ,  4-C ) :   1.3932 B(  3-C ,  9-H ) :   0.9851
B(  4-C ,  5-C ) :   1.3473 B(  4-C , 10-H ) :   0.9843 B(  5-C , 11-H ) :   0.9869
B(  6-C , 12-O ) :   1.1295 B(  6-C , 14-O ) :   1.1789 B(  6-C , 16-O ) :   1.1019
B( 12-O , 13-H ) :   0.9707 B( 14-O , 15-H ) :   0.9612 B( 16-O , 17-H ) :   0.9723

Dispersion correction           -0.029843094
FINAL SINGLE POINT ENERGY      -496.628568837618

DIPOLE MOMENT
-------------
                                X             Y             Z
Electronic contribution:      0.05248       3.14277      -0.33278
Nuclear contribution   :      0.31644      -3.51876       0.56972
                        -----------------------------------------
Total Dipole Moment    :      0.36891      -0.37600       0.23693
                        -----------------------------------------
Magnitude (a.u.)       :      0.57759
Magnitude (Debye)      :      1.46812

Dispersion correction in the Hessian             ... Starting D4

VIBRATIONAL FREQUENCIES
-----------------------

Scaling factor for frequencies =  1.000000000  (already applied!)

   0:         0.00 cm**-1
   1:         0.00 cm**-1
   2:         0.00 cm**-1
   3:         0.00 cm**-1
   4:         0.00 cm**-1
   5:         0.00 cm**-1
   6:        20.63 cm**-1
   7:       129.56 cm**-1
   8:       211.64 cm**-1
   9:       219.14 cm**-1
  10:       322.70 cm**-1
  11:       338.23 cm**-1
  12:       392.17 cm**-1
  13:       406.43 cm**-1
  14:       417.13 cm**-1
  15:       419.97 cm**-1
  16:       549.92 cm**-1
  17:       585.24 cm**-1
  18:       608.42 cm**-1
  19:       632.10 cm**-1
  20:       649.06 cm**-1
  21:       721.06 cm**-1
  22:       771.78 cm**-1
  23:       791.11 cm**-1
  24:       868.83 cm**-1
  25:       951.96 cm**-1
  26:      1001.18 cm**-1
  27:      1008.78 cm**-1
  28:      1017.57 cm**-1
  29:      1030.09 cm**-1
  30:      1050.16 cm**-1
  31:      1077.66 cm**-1
  32:      1080.96 cm**-1
  33:      1123.90 cm**-1
  34:      1169.14 cm**-1
  35:      1178.75 cm**-1
  36:      1198.38 cm**-1
  37:      1310.54 cm**-1
  38:      1327.45 cm**-1
  39:      1344.11 cm**-1
  40:      1371.83 cm**-1
  41:      1429.54 cm**-1
  42:      1481.22 cm**-1
  43:      1527.33 cm**-1
  44:      1645.42 cm**-1
  45:      1665.66 cm**-1
  46:      3170.71 cm**-1
  47:      3180.83 cm**-1
  48:      3191.93 cm**-1
  49:      3202.29 cm**-1
  50:      3218.80 cm**-1
  51:      3783.66 cm**-1
  52:      3823.09 cm**-1
  53:      3826.02 cm**-1

IR SPECTRUM
-----------

 Mode   freq       eps      Int      T**2         TX        TY        TZ
       cm**-1   L/(mol*cm) km/mol    a.u.
----------------------------------------------------------------------------
  6:     20.63   0.000014    0.07  0.000212  ( 0.005202 -0.003754 -0.013052)
  7:    129.56   0.000037    0.19  0.000090  (-0.006058  0.002806  0.006715)
  8:    211.64   0.000504    2.55  0.000744  (-0.014819 -0.012057  0.019456)
  9:    219.14   0.001264    6.39  0.001800  ( 0.025473 -0.005555 -0.033473)
 10:    322.70   0.003598   18.18  0.003480  ( 0.024746 -0.005368 -0.053276)
 11:    338.23   0.002742   13.86  0.002530  (-0.030393 -0.039751  0.005076)
 12:    392.17   0.005407   27.32  0.004303  (-0.010887  0.028175  0.058225)
 13:    406.43   0.031531  159.35  0.024210  ( 0.087068  0.128755  0.007181)
 14:    417.13   0.003953   19.98  0.002957  (-0.027634 -0.045094 -0.012664)
 15:    419.97   0.011067   55.93  0.008223  (-0.033929 -0.073784 -0.040350)
 16:    549.92   0.003670   18.55  0.002083  (-0.016944 -0.007209  0.041756)
 17:    585.24   0.003191   16.13  0.001702  (-0.009343  0.040173  0.000645)
 18:    608.42   0.013615   68.81  0.006983  ( 0.037800 -0.000872 -0.074524)
 19:    632.10   0.000004    0.02  0.000002  ( 0.001296  0.000201  0.000117)
 20:    649.06   0.008461   42.76  0.004068  ( 0.037413  0.050377  0.011417)
 21:    721.06   0.007435   37.58  0.003218  (-0.031992  0.004229  0.046654)
 22:    771.78   0.001553    7.85  0.000628  (-0.019334 -0.013005 -0.009216)
 23:    791.11   0.002759   13.95  0.001089  (-0.021164  0.004654  0.024878)
 24:    868.83   0.000048    0.24  0.000017  ( 0.000861 -0.000307 -0.004029)
 25:    951.96   0.000555    2.81  0.000182  (-0.009035  0.000760  0.009991)
 26:   1001.18   0.011999   60.64  0.003740  ( 0.022462  0.056512  0.006468)
 27:   1008.78   0.000243    1.23  0.000075  (-0.002760  0.002690  0.007776)
 28:   1017.57   0.000622    3.14  0.000191  ( 0.004574  0.012557  0.003487)
 29:   1030.09   0.000072    0.36  0.000022  ( 0.003386  0.001138 -0.003000)
 30:   1050.16   0.000972    4.91  0.000289  ( 0.006530  0.015695 -0.000138)
 31:   1077.66   0.032326  163.36  0.009361  ( 0.085346  0.022466 -0.039652)
 32:   1080.96   0.056459  285.32  0.016299  ( 0.028517 -0.021421 -0.122585)
 33:   1123.90   0.014614   73.85  0.004058  (-0.033860 -0.043252 -0.032256)
 34:   1169.14   0.000029    0.15  0.000008  ( 0.002197  0.001676  0.000176)
 35:   1178.75   0.010964   55.41  0.002903  (-0.034972 -0.039976 -0.009032)
 36:   1198.38   0.013359   67.51  0.003479  (-0.045177 -0.034612 -0.015488)
 37:   1310.54   0.014020   70.85  0.003338  (-0.041145  0.032069 -0.024842)
 38:   1327.45   0.001386    7.00  0.000326  (-0.009626 -0.014487 -0.004825)
 39:   1344.11   0.000440    2.22  0.000102  ( 0.009164  0.001838 -0.003838)
 40:   1371.83   0.001191    6.02  0.000271  ( 0.004807 -0.015591  0.002169)
 41:   1429.54   0.046059  232.76  0.010055  (-0.046161  0.084384 -0.028337)
 42:   1481.22   0.005676   28.68  0.001196  ( 0.028414 -0.007144  0.018369)
 43:   1527.33   0.000310    1.57  0.000063  (-0.007304 -0.000674 -0.003089)
 44:   1645.42   0.000089    0.45  0.000017  ( 0.003108  0.002150  0.001589)
 45:   1665.66   0.000116    0.59  0.000022  ( 0.001025 -0.004355  0.001302)
 46:   3170.71   0.000005    0.03  0.000001  (-0.000499 -0.000465 -0.000227)
 47:   3180.83   0.002343   11.84  0.000230  (-0.012565 -0.000143 -0.008481)
 48:   3191.93   0.003056   15.44  0.000299  (-0.001069  0.017021 -0.002814)
 49:   3202.29   0.000889    4.49  0.000087  ( 0.006577  0.005467  0.003667)
 50:   3218.80   0.000305    1.54  0.000030  ( 0.003511 -0.002900  0.002969)
 51:   3783.66   0.011680   59.02  0.000963  (-0.005473 -0.030508 -0.001617)
 52:   3823.09   0.011427   57.75  0.000933  (-0.017410  0.000804  0.025079)
 53:   3826.02   0.008559   43.26  0.000698  (-0.008750  0.001607  0.024880)

--------------------------
THERMOCHEMISTRY AT 298.15K
--------------------------

Temperature         ... 298.15 K
Pressure            ... 1.00 atm
Total Mass          ... 140.14 AMU

Throughout the following assumptions are being made:
  (1) The electronic state is orbitally nondegenerate
  (2) There are no thermally accessible electronically excited states
  (3) Hindered rotations indicated by low frequency modes are not
      treated as such but are treated as vibrations and this may
      cause some error
  (4) All equations used are the standard statistical mechanics
      equations for an ideal gas
  (5) All vibrations are strictly harmonic

freq.      20.63  E(vib)   ...       0.56
freq.     129.56  E(vib)   ...       0.43
freq.     211.64  E(vib)   ...       0.34
freq.     219.14  E(vib)   ...       0.33
freq.     322.70  E(vib)   ...       0.25
freq.     338.23  E(vib)   ...       0.24
freq.     392.17  E(vib)   ...       0.20
freq.     406.43  E(vib)   ...       0.19
freq.     417.13  E(vib)   ...       0.18
freq.     419.97  E(vib)   ...       0.18
freq.     549.92  E(vib)   ...       0.12
freq.     585.24  E(vib)   ...       0.11
freq.     608.42  E(vib)   ...       0.10
freq.     632.10  E(vib)   ...       0.09
freq.     649.06  E(vib)   ...       0.08
freq.     721.06  E(vib)   ...       0.07
freq.     771.78  E(vib)   ...       0.05
freq.     791.11  E(vib)   ...       0.05
freq.     868.83  E(vib)   ...       0.04
freq.     951.96  E(vib)   ...       0.03
freq.    1001.18  E(vib)   ...       0.02
freq.    1008.78  E(vib)   ...       0.02
freq.    1017.57  E(vib)   ...       0.02
freq.    1030.09  E(vib)   ...       0.02
freq.    1050.16  E(vib)   ...       0.02
freq.    1077.66  E(vib)   ...       0.02
freq.    1080.96  E(vib)   ...       0.02
freq.    1123.90  E(vib)   ...       0.01
freq.    1169.14  E(vib)   ...       0.01
freq.    1178.75  E(vib)   ...       0.01
freq.    1198.38  E(vib)   ...       0.01
freq.    1310.54  E(vib)   ...       0.01
freq.    1327.45  E(vib)   ...       0.01
freq.    1344.11  E(vib)   ...       0.01
freq.    1371.83  E(vib)   ...       0.01
freq.    1429.54  E(vib)   ...       0.00
freq.    1481.22  E(vib)   ...       0.00
freq.    1527.33  E(vib)   ...       0.00
freq.    1645.42  E(vib)   ...       0.00
freq.    1665.66  E(vib)   ...       0.00
freq.    3170.71  E(vib)   ...       0.00
freq.    3180.83  E(vib)   ...       0.00
freq.    3191.93  E(vib)   ...       0.00
freq.    3202.29  E(vib)   ...       0.00
freq.    3218.80  E(vib)   ...       0.00
freq.    3783.66  E(vib)   ...       0.00
freq.    3823.09  E(vib)   ...       0.00
freq.    3826.02  E(vib)   ...       0.00

------------
INNER ENERGY
------------

The inner energy is: U= E(el) + E(ZPE) + E(vib) + E(rot) + E(trans)
    E(el)   - is the total energy from the electronic structure calculation
              = E(kin-el) + E(nuc-el) + E(el-el) + E(nuc-nuc)
    E(ZPE)  - the the zero temperature vibrational energy from the frequency calculation
    E(vib)  - the the finite temperature correction to E(ZPE) due to population
              of excited vibrational states
    E(rot)  - is the rotational thermal energy
    E(trans)- is the translational thermal energy

Summary of contributions to the inner energy U:
Electronic energy                ...   -496.62856884 Eh
Zero point energy                ...      0.14225810 Eh      89.27 kcal/mol
Thermal vibrational correction   ...      0.00615204 Eh       3.86 kcal/mol
Thermal rotational correction    ...      0.00141627 Eh       0.89 kcal/mol
Thermal translational correction ...      0.00141627 Eh       0.89 kcal/mol
-----------------------------------------------------------------------
Total thermal energy                   -496.47732615 Eh

Summary of corrections to the electronic energy:
(perhaps to be used in another calculation)
Total thermal correction                  0.00898458 Eh       5.64 kcal/mol
Non-thermal (ZPE) correction              0.14225810 Eh      89.27 kcal/mol
-----------------------------------------------------------------------
Total correction                          0.15124269 Eh      94.91 kcal/mol

--------
ENTHALPY
--------

The enthalpy is H = U + kB*T
                kB is Boltzmann's constant
Total free energy                 ...   -496.47732615 Eh
Thermal Enthalpy correction       ...      0.00094421 Eh       0.59 kcal/mol
-----------------------------------------------------------------------
Total Enthalpy                    ...   -496.47638194 Eh

Note: Only C1 symmetry has been detected, increase convergence thresholds
      if your molecule has a higher symmetry. Symmetry factor of 1.0 is
      used for the rotational entropy correction.

Note: Rotational entropy computed according to Herzberg
Infrared and Raman Spectra, Chapter V,1, Van Nostrand Reinhold, 1945
Point Group:  C1, Symmetry Number:   1
Rotational constants in cm-1:     0.093520     0.032173     0.027486

Vibrational entropy computed according to the QRRHO of S. Grimme
Chem.Eur.J. 2012 18 9955

-------
ENTROPY
-------

The entropy contributions are T*S = T*(S(el)+S(vib)+S(rot)+S(trans))
     S(el)   - electronic entropy
     S(vib)  - vibrational entropy
     S(rot)  - rotational entropy
     S(trans)- translational entropy
The entropies will be listed as multiplied by the temperature to get
units of energy

Electronic entropy                ...      0.00000000 Eh      0.00 kcal/mol
Vibrational entropy               ...      0.01029951 Eh      6.46 kcal/mol
Rotational entropy                ...      0.01394860 Eh      8.75 kcal/mol
Translational entropy             ...      0.01934917 Eh     12.14 kcal/mol
-----------------------------------------------------------------------
Final entropy term                ...      0.04359728 Eh     27.36 kcal/mol

In case the symmetry of your molecule has not been determined correctly
or in case you have a reason to use a different symmetry number we print
out the resulting rotational entropy values for sn=1,12 :
 --------------------------------------------------------
|  sn= 1 | S(rot)=       0.01394860 Eh      8.75 kcal/mol|
|  sn= 2 | S(rot)=       0.01329414 Eh      8.34 kcal/mol|
|  sn= 3 | S(rot)=       0.01291131 Eh      8.10 kcal/mol|
|  sn= 4 | S(rot)=       0.01263969 Eh      7.93 kcal/mol|
|  sn= 5 | S(rot)=       0.01242900 Eh      7.80 kcal/mol|
|  sn= 6 | S(rot)=       0.01225685 Eh      7.69 kcal/mol|
|  sn= 7 | S(rot)=       0.01211131 Eh      7.60 kcal/mol|
|  sn= 8 | S(rot)=       0.01198523 Eh      7.52 kcal/mol|
|  sn= 9 | S(rot)=       0.01187402 Eh      7.45 kcal/mol|
|  sn=10 | S(rot)=       0.01177454 Eh      7.39 kcal/mol|
|  sn=11 | S(rot)=       0.01168455 Eh      7.33 kcal/mol|
|  sn=12 | S(rot)=       0.01160240 Eh      7.28 kcal/mol|
 --------------------------------------------------------

                             ****ORCA TERMINATED NORMALLY****
TOTAL RUN TIME: 0 days 1 hours 6 minutes 9 seconds 702 msec
