                         Program Version 5.0.4 -  RELEASE  -
|  1> !B3LYP DEF2-QZVPP
|  2>
|  3> %scf
|  4> convergence tight
|  5> end
|  6>
|  7> * xyz 1 2
|  8>   C   -6.48685128277804      0.77688258612871      0.00000003669213
|  9>   C   -7.73381145284436      0.14568444861554     -0.00000001281082
| 10>   C   -7.78899585175133     -1.25047491000549      0.00000011071880
| 11>   C   -6.61307853819634     -2.00658591283547     -0.00000008160071
| 12>   C   -5.37350246533332     -1.36010178848815     -0.00000002916520
| 13>   C   -5.30222408891036      0.03530712324043      0.00000018545977
| 14>   H   -8.64519500876919      0.74587694922205     -0.00000005341796
| 15>   H   -8.76194889046812     -1.74856684410237      0.00000018644643
| 16>   H   -6.66266737522386     -3.09801741276813     -0.00000018313853
| 17>   H   -4.44947771966353     -1.94396554004229     -0.00000012119653
| 18>   H   -4.34031613114399      0.55064255938228      0.00000022091144
| 19>   Cl  -6.40746119491754      2.52416874165289     -0.00000025889883
| 20> **                         ****END OF INPUT****

CARTESIAN COORDINATES (ANGSTROEM)
---------------------------------
  C     -6.486851    0.776883    0.000000
  C     -7.733811    0.145684   -0.000000
  C     -7.788996   -1.250475    0.000000
  C     -6.613079   -2.006586   -0.000000
  C     -5.373502   -1.360102   -0.000000
  C     -5.302224    0.035307    0.000000
  H     -8.645195    0.745877   -0.000000
  H     -8.761949   -1.748567    0.000000
  H     -6.662667   -3.098017   -0.000000
  H     -4.449478   -1.943966   -0.000000
  H     -4.340316    0.550643    0.000000
  Cl    -6.407461    2.524169   -0.000000

 Total Charge           Charge          ....    1
 Multiplicity           Mult            ....    2
 Number of Electrons    NEL             ....   57
 Basis Dimension        Dim             ....  562

ORBITAL ENERGIES
----------------
                 SPIN UP ORBITALS
  NO   OCC          E(Eh)            E(eV)
   0   1.0000    -101.760024     -2769.0310
   1   1.0000     -10.484058      -285.2857
   2   1.0000     -10.423741      -283.6444
   3   1.0000     -10.409033      -283.2442
   4   1.0000     -10.409025      -283.2440
   5   1.0000     -10.400506      -283.0122
   6   1.0000     -10.400495      -283.0119
   7   1.0000      -9.688265      -263.6311
   8   1.0000      -7.449563      -202.7129
   9   1.0000      -7.446473      -202.6288
  10   1.0000      -7.440014      -202.4531
  11   1.0000      -1.115555       -30.3558
  12   1.0000      -1.057112       -28.7655
  13   1.0000      -0.969322       -26.3766
  14   1.0000      -0.961349       -26.1596
  15   1.0000      -0.833570       -22.6826
  16   1.0000      -0.813844       -22.1458
  17   1.0000      -0.733551       -19.9609
  18   1.0000      -0.687474       -18.7071
  19   1.0000      -0.671457       -18.2713
  20   1.0000      -0.645570       -17.5668
  21   1.0000      -0.635794       -17.3008
  22   1.0000      -0.623941       -16.9783
  23   1.0000      -0.573186       -15.5972
  24   1.0000      -0.568498       -15.4696
  25   1.0000      -0.558423       -15.1955
  26   1.0000      -0.523629       -14.2487
  27   1.0000      -0.481688       -13.1074
  28   1.0000      -0.475447       -12.9376
  29   0.0000      -0.247032        -6.7221
  30   0.0000      -0.231453        -6.2982
  31   0.0000      -0.185742        -5.0543
  32   0.0000      -0.122858        -3.3431
  33   0.0000      -0.098442        -2.6787

                 SPIN DOWN ORBITALS
  NO   OCC          E(Eh)            E(eV)
   0   1.0000    -101.758032     -2768.9768
   1   1.0000     -10.479487      -285.1613
   2   1.0000     -10.418370      -283.4983
   3   1.0000     -10.407807      -283.2108
   4   1.0000     -10.407798      -283.2106
   5   1.0000     -10.400744      -283.0186
   6   1.0000     -10.400731      -283.0183
   7   1.0000      -9.686460      -263.5820
   8   1.0000      -7.448588      -202.6864
   9   1.0000      -7.440184      -202.4577
  10   1.0000      -7.438909      -202.4230
  11   1.0000      -1.105610       -30.0852
  12   1.0000      -1.048357       -28.5272
  13   1.0000      -0.966926       -26.3114
  14   1.0000      -0.946028       -25.7427
  15   1.0000      -0.828898       -22.5555
  16   1.0000      -0.807092       -21.9621
  17   1.0000      -0.730842       -19.8872
  18   1.0000      -0.684194       -18.6179
  19   1.0000      -0.667656       -18.1678
  20   1.0000      -0.641586       -17.4584
  21   1.0000      -0.635404       -17.2902
  22   1.0000      -0.597355       -16.2548
  23   1.0000      -0.571393       -15.5484
  24   1.0000      -0.566157       -15.4059
  25   1.0000      -0.527933       -14.3658
  26   1.0000      -0.519798       -14.1444
  27   1.0000      -0.470226       -12.7955
  28   0.0000      -0.402311       -10.9474
  29   0.0000      -0.220072        -5.9885
  30   0.0000      -0.217293        -5.9129
  31   0.0000      -0.179756        -4.8914
  32   0.0000      -0.121478        -3.3056

MULLIKEN ATOMIC CHARGES AND SPIN POPULATIONS
--------------------------------------------
   0 C :    0.161874    0.272419
   1 C :    0.024341    0.082220
   2 C :   -0.002978   -0.008722
   3 C :    0.051201    0.362160
   4 C :   -0.002970   -0.008888
   5 C :    0.025645    0.082474
   6 H :    0.128463   -0.003883
   7 H :    0.122637   -0.001327
   8 H :    0.131798   -0.012400
   9 H :    0.122981   -0.001329
  10 H :    0.127991   -0.003899
  11 Cl:    0.109019    0.241176
Sum of atomic charges         :    1.0000000

LOEWDIN ATOMIC CHARGES AND SPIN POPULATIONS
-------------------------------------------
   0 C :   -0.370666    0.218111
   1 C :    0.122655    0.087174
   2 C :    0.152957    0.048507
   3 C :    0.199509    0.236097
   4 C :    0.152974    0.048451
   5 C :    0.122636    0.087243
   6 H :   -0.024589    0.005152
   7 H :   -0.022490   -0.000679
   8 H :   -0.014414    0.023568
   9 H :   -0.022491   -0.000688
  10 H :   -0.024597    0.005161
  11 Cl:    0.728517    0.241903

  Mayer bond orders larger than 0.100000
B(  0-C ,  1-C ) :   1.1063 B(  0-C ,  5-C ) :   1.1065 B(  0-C , 11-Cl) :   1.2796
B(  1-C ,  2-C ) :   1.4193 B(  1-C ,  6-H ) :   0.9415 B(  2-C ,  3-C ) :   1.2022
B(  2-C ,  7-H ) :   0.9478 B(  3-C ,  4-C ) :   1.2029 B(  3-C ,  8-H ) :   0.9469
B(  4-C ,  5-C ) :   1.4197 B(  4-C ,  9-H ) :   0.9479 B(  5-C , 10-H ) :   0.9411

FINAL SINGLE POINT ENERGY      -691.450041487604

DIPOLE MOMENT
-------------
                                X             Y             Z
Electronic contribution:      0.38424       8.46520      -0.00000
Nuclear contribution   :     -0.44175      -9.73233       0.00000
                        -----------------------------------------
Total Dipole Moment    :     -0.05751      -1.26713       0.00000
                        -----------------------------------------
Magnitude (a.u.)       :      1.26844
Magnitude (Debye)      :      3.22411

Rotational constants in cm-1:     0.188469     0.051636     0.040531
Rotational constants in MHz :  5650.172228  1548.005627  1215.098957

                             ****ORCA TERMINATED NORMALLY****
TOTAL RUN TIME: 0 days 0 hours 58 minutes 23 seconds 592 msec
