                         Program Version 5.0.4 -  RELEASE  -
|  1> !BP86 DEF2-SVP OPT FREQ
|  2>
|  3> * xyz 0 1
|  4>   C      -4.127240      1.598090      0.000000
|  5>   C      -5.236140      0.753090      0.000000
|  6>   C      -5.058790     -0.629750      0.000000
|  7>   C      -3.772550     -1.167590      0.000000
|  8>   C      -2.663650     -0.322590      0.000000
|  9>   C      -2.840990      1.060250      0.000000
| 10>   H      -4.265550      2.676550      0.000000
| 11>   H      -1.976170      1.719260      0.000000
| 12>   H      -1.660520     -0.742040      0.000000
| 13>   H      -3.634240     -2.246050      0.000000
| 14>   H      -5.923620     -1.288760      0.000000
| 15>   H      -6.239270      1.172540      0.000000
| 16> **                         ****END OF INPUT****
 Total Charge           Charge          ....    0
 Multiplicity           Mult            ....    1
 Number of Electrons    NEL             ....   42
FINAL SINGLE POINT ENERGY      -232.077067325525
FINAL SINGLE POINT ENERGY      -232.078569674319
FINAL SINGLE POINT ENERGY      -232.078590030299
                    ***********************HURRAY********************

CARTESIAN COORDINATES (ANGSTROEM)
---------------------------------
  C     -4.128755    1.609789    0.000000
  C     -5.247094    0.757680   -0.000000
  C     -5.068191   -0.636878    0.000000
  C     -3.771034   -1.179290    0.000000
  C     -2.652694   -0.327180    0.000000
  C     -2.831597    1.067378    0.000000
  H     -4.268811    2.702258    0.000000
  H     -1.955581    1.734981   -0.000000
  H     -1.636539   -0.752045   -0.000000
  H     -3.630976   -2.271758   -0.000000
  H     -5.944208   -1.304479    0.000000
  H     -6.263249    1.182545   -0.000000

 Multiplicity           Mult            ....    1
 Number of Electrons    NEL             ....   42
 Basis Dimension        Dim             ....  114

ORBITAL ENERGIES
----------------

  NO   OCC          E(Eh)            E(eV)
   0   2.0000      -9.920401      -269.9478
   1   2.0000      -9.920337      -269.9461
   2   2.0000      -9.920336      -269.9461
   3   2.0000      -9.920137      -269.9406
   4   2.0000      -9.920136      -269.9406
   5   2.0000      -9.920117      -269.9401
   6   2.0000      -0.768205       -20.9039
   7   2.0000      -0.667290       -18.1579
   8   2.0000      -0.667276       -18.1575
   9   2.0000      -0.537436       -14.6244
  10   2.0000      -0.537430       -14.6242
  11   2.0000      -0.468221       -12.7409
  12   2.0000      -0.406724       -11.0675
  13   2.0000      -0.398916       -10.8551
  14   2.0000      -0.374147       -10.1810
  15   2.0000      -0.374123       -10.1804
  16   2.0000      -0.329412        -8.9638
  17   2.0000      -0.303194        -8.2503
  18   2.0000      -0.303181        -8.2500
  19   2.0000      -0.230726        -6.2784
  20   2.0000      -0.230714        -6.2781
  21   0.0000      -0.042152        -1.1470
  22   0.0000      -0.042149        -1.1469
  23   0.0000       0.036593         0.9957
  24   0.0000       0.080332         2.1859
  25   0.0000       0.080337         2.1861

MULLIKEN ATOMIC CHARGES
-----------------------
   0 C :   -0.004048
   1 C :   -0.004021
   2 C :   -0.003934
   3 C :   -0.004040
   4 C :   -0.004020
   5 C :   -0.003938
   6 H :    0.004005
   7 H :    0.003983
   8 H :    0.004013
   9 H :    0.004004
  10 H :    0.003982
  11 H :    0.004013
Sum of atomic charges:   -0.0000000

LOEWDIN ATOMIC CHARGES
----------------------
   0 C :   -0.032295
   1 C :   -0.032293
   2 C :   -0.032276
   3 C :   -0.032290
   4 C :   -0.032292
   5 C :   -0.032280
   6 H :    0.032287
   7 H :    0.032282
   8 H :    0.032293
   9 H :    0.032287
  10 H :    0.032282
  11 H :    0.032293

  Mayer bond orders larger than 0.100000
B(  0-C ,  1-C ) :   1.3922 B(  0-C ,  5-C ) :   1.3922 B(  0-C ,  6-H ) :   0.9755
B(  1-C ,  2-C ) :   1.3921 B(  1-C , 11-H ) :   0.9755 B(  2-C ,  3-C ) :   1.3922
B(  2-C , 10-H ) :   0.9755 B(  3-C ,  4-C ) :   1.3922 B(  3-C ,  9-H ) :   0.9755
B(  4-C ,  5-C ) :   1.3921 B(  4-C ,  8-H ) :   0.9755 B(  5-C ,  7-H ) :   0.9755

FINAL SINGLE POINT ENERGY      -232.078590265268

DIPOLE MOMENT
-------------
                                X             Y             Z
Electronic contribution:     -0.00000      -0.00002       0.00000
Nuclear contribution   :     -0.00000       0.00000      -0.00000
                        -----------------------------------------
Total Dipole Moment    :     -0.00000      -0.00002      -0.00000
                        -----------------------------------------
Magnitude (a.u.)       :      0.00002
Magnitude (Debye)      :      0.00005

VIBRATIONAL FREQUENCIES
-----------------------

Scaling factor for frequencies =  1.000000000  (already applied!)

   0:         0.00 cm**-1
   1:         0.00 cm**-1
   2:         0.00 cm**-1
   3:         0.00 cm**-1
   4:         0.00 cm**-1
   5:         0.00 cm**-1
   6:       401.27 cm**-1
   7:       401.49 cm**-1
   8:       600.29 cm**-1
   9:       600.35 cm**-1
  10:       668.66 cm**-1
  11:       711.29 cm**-1
  12:       838.12 cm**-1
  13:       838.15 cm**-1
  14:       961.71 cm**-1
  15:       961.73 cm**-1
  16:       981.54 cm**-1
  17:       995.64 cm**-1
  18:       995.64 cm**-1
  19:      1030.98 cm**-1
  20:      1031.00 cm**-1
  21:      1130.55 cm**-1
  22:      1151.47 cm**-1
  23:      1151.55 cm**-1
  24:      1317.94 cm**-1
  25:      1365.95 cm**-1
  26:      1462.55 cm**-1
  27:      1462.64 cm**-1
  28:      1603.97 cm**-1
  29:      1604.01 cm**-1
  30:      3092.04 cm**-1
  31:      3101.65 cm**-1
  32:      3101.81 cm**-1
  33:      3115.70 cm**-1
  34:      3115.97 cm**-1
  35:      3125.03 cm**-1

IR SPECTRUM
-----------

 Mode   freq       eps      Int      T**2         TX        TY        TZ
       cm**-1   L/(mol*cm) km/mol    a.u.
----------------------------------------------------------------------------
  6:    401.27   0.000000    0.00  0.000000  (-0.000000 -0.000000 -0.000051)
  7:    401.49   0.000000    0.00  0.000000  ( 0.000000 -0.000000  0.000010)
  8:    600.29   0.000000    0.00  0.000000  (-0.000000  0.000000  0.000000)
  9:    600.35   0.000000    0.00  0.000000  ( 0.000000  0.000000 -0.000000)
 10:    668.66   0.016632   84.05  0.007762  ( 0.000000  0.000000  0.088103)
 11:    711.29   0.000000    0.00  0.000000  (-0.000000 -0.000000 -0.000000)
 12:    838.12   0.000000    0.00  0.000000  ( 0.000000 -0.000000  0.000001)
 13:    838.15   0.000000    0.00  0.000000  ( 0.000000 -0.000000  0.000000)
 14:    961.71   0.000000    0.00  0.000000  (-0.000000  0.000000 -0.000021)
 15:    961.73   0.000000    0.00  0.000000  (-0.000000 -0.000000 -0.000026)
 16:    981.54   0.000000    0.00  0.000000  (-0.000017 -0.000003  0.000000)
 17:    995.64   0.000000    0.00  0.000000  ( 0.000000  0.000000  0.000000)
 18:    995.64   0.000000    0.00  0.000000  (-0.000000 -0.000000 -0.000000)
 19:   1030.98   0.001027    5.19  0.000311  (-0.011757 -0.013144  0.000000)
 20:   1031.00   0.001023    5.17  0.000310  (-0.013092  0.011754  0.000000)
 21:   1130.55   0.000000    0.00  0.000000  ( 0.000019  0.000021  0.000000)
 22:   1151.47   0.000000    0.00  0.000000  ( 0.000000  0.000000  0.000000)
 23:   1151.55   0.000000    0.00  0.000000  ( 0.000000 -0.000000  0.000000)
 24:   1317.94   0.000000    0.00  0.000000  ( 0.000000 -0.000000  0.000000)
 25:   1365.95   0.000000    0.00  0.000000  (-0.000014 -0.000039 -0.000000)
 26:   1462.55   0.001269    6.41  0.000271  (-0.014805  0.007181  0.000000)
 27:   1462.64   0.001262    6.38  0.000269  (-0.007187 -0.014754 -0.000000)
 28:   1603.97   0.000000    0.00  0.000000  ( 0.000000 -0.000000  0.000000)
 29:   1604.01   0.000000    0.00  0.000000  ( 0.000000  0.000000  0.000000)
 30:   3092.04   0.000000    0.00  0.000000  ( 0.000022 -0.000143 -0.000000)
 31:   3101.65   0.000000    0.00  0.000000  (-0.000000  0.000001 -0.000000)
 32:   3101.81   0.000000    0.00  0.000000  ( 0.000000 -0.000000 -0.000000)
 33:   3115.70   0.006337   32.02  0.000635  (-0.004161 -0.024847 -0.000000)
 34:   3115.97   0.006308   31.88  0.000632  ( 0.024797 -0.004099 -0.000000)
 35:   3125.03   0.000000    0.00  0.000000  (-0.000000 -0.000001 -0.000000)

--------------------------
THERMOCHEMISTRY AT 298.15K
--------------------------

Temperature         ... 298.15 K
Pressure            ... 1.00 atm
Total Mass          ... 78.11 AMU

Throughout the following assumptions are being made:
  (1) The electronic state is orbitally nondegenerate
  (2) There are no thermally accessible electronically excited states
  (3) Hindered rotations indicated by low frequency modes are not
      treated as such but are treated as vibrations and this may
      cause some error
  (4) All equations used are the standard statistical mechanics
      equations for an ideal gas
  (5) All vibrations are strictly harmonic

freq.     401.27  E(vib)   ...       0.19
freq.     401.49  E(vib)   ...       0.19
freq.     600.29  E(vib)   ...       0.10
freq.     600.35  E(vib)   ...       0.10
freq.     668.66  E(vib)   ...       0.08
freq.     711.29  E(vib)   ...       0.07
freq.     838.12  E(vib)   ...       0.04
freq.     838.15  E(vib)   ...       0.04
freq.     961.71  E(vib)   ...       0.03
freq.     961.73  E(vib)   ...       0.03
freq.     981.54  E(vib)   ...       0.02
freq.     995.64  E(vib)   ...       0.02
freq.     995.64  E(vib)   ...       0.02
freq.    1030.98  E(vib)   ...       0.02
freq.    1031.00  E(vib)   ...       0.02
freq.    1130.55  E(vib)   ...       0.01
freq.    1151.47  E(vib)   ...       0.01
freq.    1151.55  E(vib)   ...       0.01
freq.    1317.94  E(vib)   ...       0.01
freq.    1365.95  E(vib)   ...       0.01
freq.    1462.55  E(vib)   ...       0.00
freq.    1462.64  E(vib)   ...       0.00
freq.    1603.97  E(vib)   ...       0.00
freq.    1604.01  E(vib)   ...       0.00
freq.    3092.04  E(vib)   ...       0.00
freq.    3101.65  E(vib)   ...       0.00
freq.    3101.81  E(vib)   ...       0.00
freq.    3115.70  E(vib)   ...       0.00
freq.    3115.97  E(vib)   ...       0.00
freq.    3125.03  E(vib)   ...       0.00

------------
INNER ENERGY
------------

The inner energy is: U= E(el) + E(ZPE) + E(vib) + E(rot) + E(trans)
    E(el)   - is the total energy from the electronic structure calculation
              = E(kin-el) + E(nuc-el) + E(el-el) + E(nuc-nuc)
    E(ZPE)  - the the zero temperature vibrational energy from the frequency calculation
    E(vib)  - the the finite temperature correction to E(ZPE) due to population
              of excited vibrational states
    E(rot)  - is the rotational thermal energy
    E(trans)- is the translational thermal energy

Summary of contributions to the inner energy U:
Electronic energy                ...   -232.07859027 Eh
Zero point energy                ...      0.09778051 Eh      61.36 kcal/mol
Thermal vibrational correction   ...      0.00167083 Eh       1.05 kcal/mol
Thermal rotational correction    ...      0.00141627 Eh       0.89 kcal/mol
Thermal translational correction ...      0.00141627 Eh       0.89 kcal/mol
-----------------------------------------------------------------------
Total thermal energy                   -231.97630639 Eh

Summary of corrections to the electronic energy:
(perhaps to be used in another calculation)
Total thermal correction                  0.00450337 Eh       2.83 kcal/mol
Non-thermal (ZPE) correction              0.09778051 Eh      61.36 kcal/mol
-----------------------------------------------------------------------
Total correction                          0.10228388 Eh      64.18 kcal/mol

--------
ENTHALPY
--------

The enthalpy is H = U + kB*T
                kB is Boltzmann's constant
Total free energy                 ...   -231.97630639 Eh
Thermal Enthalpy correction       ...      0.00094421 Eh       0.59 kcal/mol
-----------------------------------------------------------------------
Total Enthalpy                    ...   -231.97536218 Eh

Note: Rotational entropy computed according to Herzberg
Infrared and Raman Spectra, Chapter V,1, Van Nostrand Reinhold, 1945
Point Group:  D2h, Symmetry Number:   4
Rotational constants in cm-1:     0.186814     0.186796     0.093402

Vibrational entropy computed according to the QRRHO of S. Grimme
Chem.Eur.J. 2012 18 9955

-------
ENTROPY
-------

The entropy contributions are T*S = T*(S(el)+S(vib)+S(rot)+S(trans))
     S(el)   - electronic entropy
     S(vib)  - vibrational entropy
     S(rot)  - rotational entropy
     S(trans)- translational entropy
The entropies will be listed as multiplied by the temperature to get
units of energy

Electronic entropy                ...      0.00000000 Eh      0.00 kcal/mol
Vibrational entropy               ...      0.00224946 Eh      1.41 kcal/mol
Rotational entropy                ...      0.01090519 Eh      6.84 kcal/mol
Translational entropy             ...      0.01852142 Eh     11.62 kcal/mol
-----------------------------------------------------------------------
Final entropy term                ...      0.03167608 Eh     19.88 kcal/mol

In case the symmetry of your molecule has not been determined correctly
or in case you have a reason to use a different symmetry number we print
out the resulting rotational entropy values for sn=1,12 :
 --------------------------------------------------------
|  sn= 1 | S(rot)=       0.01221410 Eh      7.66 kcal/mol|
|  sn= 2 | S(rot)=       0.01155965 Eh      7.25 kcal/mol|
|  sn= 3 | S(rot)=       0.01117681 Eh      7.01 kcal/mol|
|  sn= 4 | S(rot)=       0.01090519 Eh      6.84 kcal/mol|
|  sn= 5 | S(rot)=       0.01069450 Eh      6.71 kcal/mol|
|  sn= 6 | S(rot)=       0.01052236 Eh      6.60 kcal/mol|
|  sn= 7 | S(rot)=       0.01037681 Eh      6.51 kcal/mol|
|  sn= 8 | S(rot)=       0.01025073 Eh      6.43 kcal/mol|
|  sn= 9 | S(rot)=       0.01013953 Eh      6.36 kcal/mol|
|  sn=10 | S(rot)=       0.01004005 Eh      6.30 kcal/mol|
|  sn=11 | S(rot)=       0.00995006 Eh      6.24 kcal/mol|
|  sn=12 | S(rot)=       0.00986790 Eh      6.19 kcal/mol|
 --------------------------------------------------------

-------------------
GIBBS FREE ENERGY
-------------------

The Gibbs free energy is G = H - T*S

Total enthalpy                    ...   -231.97536218 Eh
Total entropy correction          ...     -0.03167608 Eh    -19.88 kcal/mol
-----------------------------------------------------------------------
Final Gibbs free energy         ...   -232.00703825 Eh

For completeness - the Gibbs free energy minus the electronic energy
G-E(el)                           ...      0.07155201 Eh     44.90 kcal/mol

                             ****ORCA TERMINATED NORMALLY****
TOTAL RUN TIME: 0 days 0 hours 3 minutes 15 seconds 401 msec
