                         Program Version 5.0.4 -  RELEASE  -
|  1> !B3LYP DEF2-SVP OPT FREQ D4 SOSCF TIGHTOPT
|  2>
|  3> %geom
|  4> maxIter 1000
|  5> calc_hess true
|  6> recalc_hess 20
|  7> end
|  8>
|  9> %scf
| 10> convergence tight
| 11> maxIter 1000
| 12> end
| 13>
| 14> * xyz 1 1
| 15>   C   -5.68864025007199      0.74375697940424      4.02279963313618
| 16>   C   -6.14017478281601      1.48752803661525      2.89479801700060
| 17>   C   -6.03577510452864      0.96860095727281      1.61512919679120
| 18>   C   -5.47671551789388     -0.31067808542453      1.42174229638733
| 19>   C   -5.02516667533910     -1.06251571606448      2.52737726342718
| 20>   C   -5.13038656319973     -0.54172380422492      3.80827956130628
| 21>   C   -5.80219044545854      1.32185478537185      5.39342595030213
| 22>   H   -5.47568151075062      0.62058386935549      6.17291648473423
| 23>   H   -6.84190537608322      1.63110850063137      5.60405156790145
| 24>   H   -5.19467969317582      2.24286556186927      5.47547721675407
| 25>   H   -6.57338048436388      2.47867051326444      3.05213474531913
| 26>   H   -6.38467649074386      1.54541398407473      0.75588032905486
| 27>   H   -5.39272090817148     -0.72245752042804      0.41310965395308
| 28>   H   -4.59377490734198     -2.05350886881684      2.37011864130417
| 29>   H   -4.78267860356755     -1.12027465846136      4.66726950684610
| 30>   N   -10.72303025727538     -2.04355384202885    -23.95949870294162
| 31>   O   -10.31248685872961     -1.95063071645687    -22.88200324132554
| 32>   O   -10.56999081643787     -2.21775338079966    -25.09257128368711
| 33> **                         ****END OF INPUT****
 Total Charge           Charge          ....    1
 Multiplicity           Mult            ....    1
 Number of Electrons    NEL             ....   72
Dispersion correction           -0.021442454
FINAL SINGLE POINT ENERGY      -475.724619442140
Dispersion correction            ... Starting D4
Dispersion correction in the Hessian             ... Starting D4
Dispersion correction           -0.021442611
FINAL SINGLE POINT ENERGY      -475.724629670173
Dispersion correction            ... Starting D4
Dispersion correction           -0.021442834
FINAL SINGLE POINT ENERGY      -475.724641168401
FINAL SINGLE POINT ENERGY      -475.724652665344
FINAL SINGLE POINT ENERGY      -475.724664508583
FINAL SINGLE POINT ENERGY      -475.724676103865
FINAL SINGLE POINT ENERGY      -475.724684622431
FINAL SINGLE POINT ENERGY      -475.724685637993
FINAL SINGLE POINT ENERGY      -475.724691552082
FINAL SINGLE POINT ENERGY      -475.724692212065
FINAL SINGLE POINT ENERGY      -475.724696934138
FINAL SINGLE POINT ENERGY      -475.724691004497
FINAL SINGLE POINT ENERGY      -475.724686938759
FINAL SINGLE POINT ENERGY      -475.724688703896
FINAL SINGLE POINT ENERGY      -475.724688427613
Dispersion correction           -0.021443499
FINAL SINGLE POINT ENERGY      -475.724688422482
Dispersion correction            ... Starting D4
Dispersion correction           -0.021443499
FINAL SINGLE POINT ENERGY      -475.724688538496
Dispersion correction            ... Starting D4
                    ***********************HURRAY********************

CARTESIAN COORDINATES (ANGSTROEM)
---------------------------------
  C     -5.650646    0.739895    4.119872
  C     -6.130016    1.520906    3.029109
  C     -6.076493    1.036935    1.732751
  C     -5.542094   -0.243459    1.484833
  C     -5.062912   -1.031606    2.552910
  C     -5.117184   -0.545778    3.850595
  C     -5.712240    1.279651    5.509268
  H     -5.356929    0.557368    6.256278
  H     -6.744002    1.580265    5.767036
  H     -5.103715    2.199548    5.594298
  H     -6.543857    2.512749    3.228594
  H     -6.446523    1.642154    0.902365
  H     -5.498477   -0.627863    0.462942
  H     -4.650478   -2.023065    2.353358
  H     -4.747821   -1.152530    4.680592
  N    -10.775542   -2.124783  -24.400481
  O    -10.358102   -2.035777  -23.325326
  O    -10.627023   -2.267326  -25.538555

 Multiplicity           Mult            ....    1
 Number of Electrons    NEL             ....   72
 Basis Dimension        Dim             ....  180

ORBITAL ENERGIES
----------------

  NO   OCC          E(Eh)            E(eV)
   0   2.0000     -19.467812      -529.7461
   1   2.0000     -19.467747      -529.7443
   2   2.0000     -14.790711      -402.4757
   3   2.0000     -10.323614      -280.9198
   4   2.0000     -10.313233      -280.6373
   5   2.0000     -10.301096      -280.3071
   6   2.0000     -10.300888      -280.3014
   7   2.0000     -10.299170      -280.2547
   8   2.0000     -10.298581      -280.2386
   9   2.0000     -10.284155      -279.8461
  10   2.0000      -1.499151       -40.7940
  11   2.0000      -1.376851       -37.4660
  12   2.0000      -0.960027       -26.1237
  13   2.0000      -0.873125       -23.7589
  14   2.0000      -0.847682       -23.0666
  15   2.0000      -0.834138       -22.6981
  16   2.0000      -0.788473       -21.4554
  17   2.0000      -0.783949       -21.3323
  18   2.0000      -0.781110       -21.2551
  19   2.0000      -0.763218       -20.7682
  20   2.0000      -0.706826       -19.2337
  21   2.0000      -0.685575       -18.6555
  22   2.0000      -0.614424       -16.7193
  23   2.0000      -0.584832       -15.9141
  24   2.0000      -0.580327       -15.7915
  25   2.0000      -0.571277       -15.5452
  26   2.0000      -0.553960       -15.0740
  27   2.0000      -0.528578       -14.3833
  28   2.0000      -0.518706       -14.1147
  29   2.0000      -0.515527       -14.0282
  30   2.0000      -0.484235       -13.1767
  31   2.0000      -0.460196       -12.5226
  32   2.0000      -0.454481       -12.3670
  33   2.0000      -0.445826       -12.1315
  34   2.0000      -0.365119        -9.9354
  35   2.0000      -0.341875        -9.3029
  36   0.0000      -0.338092        -9.2000
  37   0.0000      -0.261572        -7.1177
  38   0.0000      -0.121366        -3.3025
  39   0.0000      -0.111666        -3.0386
  40   0.0000      -0.025129        -0.6838

MULLIKEN ATOMIC CHARGES
-----------------------
   0 C :   -0.040790
   1 C :    0.023695
   2 C :    0.037384
   3 C :    0.054518
   4 C :    0.040750
   5 C :    0.021806
   6 C :    0.067659
   7 H :    0.040126
   8 H :    0.062676
   9 H :    0.066153
  10 H :    0.012382
  11 H :    0.024692
  12 H :    0.033534
  13 H :    0.025738
  14 H :    0.012417
  15 N :    0.423156
  16 O :    0.046151
  17 O :    0.047952
Sum of atomic charges:    1.0000000

LOEWDIN ATOMIC CHARGES
----------------------
   0 C :    0.052128
   1 C :    0.011795
   2 C :    0.001063
   3 C :    0.057499
   4 C :    0.010048
   5 C :    0.001022
   6 C :   -0.035271
   7 H :    0.041674
   8 H :    0.058919
   9 H :    0.061506
  10 H :    0.042265
  11 H :    0.045401
  12 H :    0.046493
  13 H :    0.045976
  14 H :    0.042223
  15 N :    0.329897
  16 O :    0.092836
  17 O :    0.094526

  Mayer bond orders larger than 0.100000
B(  0-C ,  1-C ) :   1.2576 B(  0-C ,  5-C ) :   1.2958 B(  0-C ,  6-C ) :   1.0895
B(  0-C , 15-N ) :   0.1005 B(  1-C ,  2-C ) :   1.4504 B(  1-C , 10-H ) :   0.9913
B(  2-C ,  3-C ) :   1.2999 B(  2-C , 11-H ) :   0.9862 B(  3-C ,  4-C ) :   1.2904
B(  3-C , 12-H ) :   0.9849 B(  3-C , 15-N ) :   0.1070 B(  4-C ,  5-C ) :   1.4380
B(  4-C , 13-H ) :   0.9848 B(  5-C , 14-H ) :   0.9875 B(  6-C ,  7-H ) :   0.9593
B(  6-C ,  8-H ) :   0.9339 B(  6-C ,  9-H ) :   0.9302 B( 15-N , 16-O ) :   1.8045
B( 15-N , 17-O ) :   1.8061 B( 16-O , 17-O ) :   0.3874

Dispersion correction           -0.021443499
FINAL SINGLE POINT ENERGY      -475.724688616195

DIPOLE MOMENT
-------------
                                X             Y             Z
Electronic contribution:    -13.95401      -8.45263     -81.23755
Nuclear contribution   :     12.13126       7.64058      71.69226
                        -----------------------------------------
Total Dipole Moment    :     -1.82275      -0.81205      -9.54529
                        -----------------------------------------
Magnitude (a.u.)       :      9.75164
Magnitude (Debye)      :     24.78670

Dispersion correction in the Hessian             ... Starting D4

VIBRATIONAL FREQUENCIES
-----------------------

Scaling factor for frequencies =  1.000000000  (already applied!)

   0:         0.00 cm**-1
   1:         0.00 cm**-1
   2:         0.00 cm**-1
   3:         0.00 cm**-1
   4:         0.00 cm**-1
   5:         0.00 cm**-1
   6:        -4.86 cm**-1 ***imaginary mode***
   7:        -3.56 cm**-1 ***imaginary mode***
   8:         1.27 cm**-1
   9:         3.77 cm**-1
  10:        10.95 cm**-1
  11:        17.71 cm**-1
  12:        20.02 cm**-1
  13:       189.85 cm**-1
  14:       346.90 cm**-1
  15:       390.21 cm**-1
  16:       454.64 cm**-1
  17:       519.28 cm**-1
  18:       564.72 cm**-1
  19:       572.49 cm**-1
  20:       651.66 cm**-1
  21:       755.12 cm**-1
  22:       795.41 cm**-1
  23:       833.88 cm**-1
  24:       933.77 cm**-1
  25:       979.91 cm**-1
  26:      1008.60 cm**-1
  27:      1013.68 cm**-1
  28:      1020.61 cm**-1
  29:      1029.07 cm**-1
  30:      1034.27 cm**-1
  31:      1101.95 cm**-1
  32:      1157.44 cm**-1
  33:      1195.25 cm**-1
  34:      1247.99 cm**-1
  35:      1315.04 cm**-1
  36:      1365.02 cm**-1
  37:      1376.68 cm**-1
  38:      1387.94 cm**-1
  39:      1423.87 cm**-1
  40:      1427.52 cm**-1
  41:      1458.18 cm**-1
  42:      1498.36 cm**-1
  43:      1516.04 cm**-1
  44:      1670.59 cm**-1
  45:      2145.51 cm**-1
  46:      3007.32 cm**-1
  47:      3063.16 cm**-1
  48:      3146.09 cm**-1
  49:      3187.81 cm**-1
  50:      3192.40 cm**-1
  51:      3199.62 cm**-1
  52:      3207.54 cm**-1
  53:      3213.96 cm**-1

IR SPECTRUM
-----------

 Mode   freq       eps      Int      T**2         TX        TY        TZ
       cm**-1   L/(mol*cm) km/mol    a.u.
----------------------------------------------------------------------------
  8:      1.27   0.000000    0.00  0.000000  ( 0.000000  0.000000  0.000000)
  9:      3.77   0.000000    0.00  0.000000  ( 0.000000  0.000000  0.000000)
 10:     10.95   0.000043    0.22  0.001233  ( 0.002262  0.032882 -0.012105)
 11:     17.71   0.000322    1.63  0.005676  (-0.072725 -0.018101  0.007700)
 12:     20.02   0.000341    1.72  0.005313  ( 0.006573  0.071164 -0.014349)
 13:    189.85   0.000260    1.31  0.000427  (-0.018643 -0.008728  0.001723)
 14:    346.90   0.003361   16.98  0.003023  ( 0.006598  0.012401  0.053160)
 15:    390.21   0.000000    0.00  0.000000  (-0.000055 -0.000456 -0.000240)
 16:    454.64   0.000735    3.72  0.000505  (-0.018761 -0.008555 -0.008914)
 17:    519.28   0.567494  2867.88  0.341039  ( 0.098377  0.052809  0.573212)
 18:    564.72   0.839451  4242.24  0.463880  (-0.110110 -0.066735 -0.668807)
 19:    572.49   4.597576  23234.26  2.506119  (-0.257523 -0.145370 -1.555207)
 20:    651.66   0.004348   21.97  0.002082  (-0.041383 -0.018322  0.005809)
 21:    755.12   0.006643   33.57  0.002746  ( 0.047620  0.020406 -0.007840)
 22:    795.41   0.014688   74.23  0.005763  ( 0.015656  0.001422  0.074267)
 23:    833.88   0.000023    0.11  0.000008  (-0.002511 -0.001035  0.001054)
 24:    933.77   0.000447    2.26  0.000149  ( 0.003138  0.002102  0.011625)
 25:    979.91   0.079268  400.59  0.025244  (-0.024454 -0.022292 -0.155399)
 26:   1008.60   0.034417  173.93  0.010649  ( 0.021326  0.008166  0.100634)
 27:   1013.68   0.000147    0.75  0.000045  (-0.005894 -0.003018 -0.001245)
 28:   1020.61   0.002393   12.10  0.000732  (-0.022533 -0.011240 -0.009887)
 29:   1029.07   0.018655   94.28  0.005657  ( 0.016012  0.003829  0.073390)
 30:   1034.27   0.000188    0.95  0.000057  (-0.004852 -0.002492 -0.005190)
 31:   1101.95   0.003729   18.85  0.001056  ( 0.003798 -0.022371 -0.023264)
 32:   1157.44   0.007865   39.75  0.002121  (-0.006599 -0.006718 -0.045076)
 33:   1195.25   0.229358  1159.08  0.059882  (-0.042924 -0.024379 -0.239678)
 34:   1247.99   0.227288  1148.62  0.056834  (-0.039429 -0.027786 -0.233468)
 35:   1315.04   0.079072  399.60  0.018764  (-0.018604 -0.022465 -0.133840)
 36:   1365.02   1.096185  5539.67  0.250604  ( 0.079797  0.067533  0.489567)
 37:   1376.68   5.230211  26431.34  1.185573  (-0.199463 -0.090944 -1.066544)
 38:   1387.94   0.015745   79.57  0.003540  (-0.013806 -0.000032 -0.057875)
 39:   1423.87   0.000967    4.89  0.000212  ( 0.008259  0.011164 -0.004370)
 40:   1427.52   0.001764    8.92  0.000386  (-0.019600 -0.000212 -0.001208)
 41:   1458.18   0.004545   22.97  0.000973  (-0.003452  0.023182  0.020575)
 42:   1498.36   0.032396  163.72  0.006747  (-0.001657 -0.023944 -0.078556)
 43:   1516.04   0.001973    9.97  0.000406  (-0.008040  0.018088 -0.003772)
 44:   1670.59   0.566008  2860.37  0.105729  (-0.056897 -0.031634 -0.318577)
 45:   2145.51   0.065276  329.88  0.009494  ( 0.011565  0.010097  0.096222)
 46:   3007.32   0.083120  420.05  0.008625  ( 0.014069  0.012573  0.090935)
 47:   3063.16   0.000048    0.24  0.000005  ( 0.001135  0.000128 -0.001895)
 48:   3146.09   0.039517  199.70  0.003920  ( 0.010608  0.003949  0.061576)
 49:   3187.81   0.003585   18.12  0.000351  ( 0.002080  0.003816  0.018223)
 50:   3192.40   0.000576    2.91  0.000056  ( 0.001424 -0.000072  0.007368)
 51:   3199.62   0.007563   38.22  0.000738  ( 0.003924  0.003743  0.026612)
 52:   3207.54   0.000215    1.09  0.000021  ( 0.001742 -0.002767  0.003193)
 53:   3213.96   0.012323   62.28  0.001197  ( 0.006952  0.002098  0.033820)

--------------------------
THERMOCHEMISTRY AT 298.15K
--------------------------

Temperature         ... 298.15 K
Pressure            ... 1.00 atm
Total Mass          ... 138.15 AMU

Throughout the following assumptions are being made:
  (1) The electronic state is orbitally nondegenerate
  (2) There are no thermally accessible electronically excited states
  (3) Hindered rotations indicated by low frequency modes are not
      treated as such but are treated as vibrations and this may
      cause some error
  (4) All equations used are the standard statistical mechanics
      equations for an ideal gas
  (5) All vibrations are strictly harmonic

freq.       1.27  E(vib)   ...       0.59
freq.       3.77  E(vib)   ...       0.59
freq.      10.95  E(vib)   ...       0.58
freq.      17.71  E(vib)   ...       0.57
freq.      20.02  E(vib)   ...       0.56
freq.     189.85  E(vib)   ...       0.36
freq.     346.90  E(vib)   ...       0.23
freq.     390.21  E(vib)   ...       0.20
freq.     454.64  E(vib)   ...       0.16
freq.     519.28  E(vib)   ...       0.13
freq.     564.72  E(vib)   ...       0.11
freq.     572.49  E(vib)   ...       0.11
freq.     651.66  E(vib)   ...       0.08
freq.     755.12  E(vib)   ...       0.06
freq.     795.41  E(vib)   ...       0.05
freq.     833.88  E(vib)   ...       0.04
freq.     933.77  E(vib)   ...       0.03
freq.     979.91  E(vib)   ...       0.02
freq.    1008.60  E(vib)   ...       0.02
freq.    1013.68  E(vib)   ...       0.02
freq.    1020.61  E(vib)   ...       0.02
freq.    1029.07  E(vib)   ...       0.02
freq.    1034.27  E(vib)   ...       0.02
freq.    1101.95  E(vib)   ...       0.02
freq.    1157.44  E(vib)   ...       0.01
freq.    1195.25  E(vib)   ...       0.01
freq.    1247.99  E(vib)   ...       0.01
freq.    1315.04  E(vib)   ...       0.01
freq.    1365.02  E(vib)   ...       0.01
freq.    1376.68  E(vib)   ...       0.01
freq.    1387.94  E(vib)   ...       0.00
freq.    1423.87  E(vib)   ...       0.00
freq.    1427.52  E(vib)   ...       0.00
freq.    1458.18  E(vib)   ...       0.00
freq.    1498.36  E(vib)   ...       0.00
freq.    1516.04  E(vib)   ...       0.00
freq.    1670.59  E(vib)   ...       0.00
freq.    2145.51  E(vib)   ...       0.00
freq.    3007.32  E(vib)   ...       0.00
freq.    3063.16  E(vib)   ...       0.00
freq.    3146.09  E(vib)   ...       0.00
freq.    3187.81  E(vib)   ...       0.00
freq.    3192.40  E(vib)   ...       0.00
freq.    3199.62  E(vib)   ...       0.00
freq.    3207.54  E(vib)   ...       0.00
freq.    3213.96  E(vib)   ...       0.00

------------
INNER ENERGY
------------

The inner energy is: U= E(el) + E(ZPE) + E(vib) + E(rot) + E(trans)
    E(el)   - is the total energy from the electronic structure calculation
              = E(kin-el) + E(nuc-el) + E(el-el) + E(nuc-nuc)
    E(ZPE)  - the the zero temperature vibrational energy from the frequency calculation
    E(vib)  - the the finite temperature correction to E(ZPE) due to population
              of excited vibrational states
    E(rot)  - is the rotational thermal energy
    E(trans)- is the translational thermal energy

Summary of contributions to the inner energy U:
Electronic energy                ...   -475.72468862 Eh
Zero point energy                ...      0.13589968 Eh      85.28 kcal/mol
Thermal vibrational correction   ...      0.00746145 Eh       4.68 kcal/mol
Thermal rotational correction    ...      0.00141627 Eh       0.89 kcal/mol
Thermal translational correction ...      0.00141627 Eh       0.89 kcal/mol
-----------------------------------------------------------------------
Total thermal energy                   -475.57849494 Eh

Summary of corrections to the electronic energy:
(perhaps to be used in another calculation)
Total thermal correction                  0.01029399 Eh       6.46 kcal/mol
Non-thermal (ZPE) correction              0.13589968 Eh      85.28 kcal/mol
-----------------------------------------------------------------------
Total correction                          0.14619367 Eh      91.74 kcal/mol

--------
ENTHALPY
--------

The enthalpy is H = U + kB*T
                kB is Boltzmann's constant
Total free energy                 ...   -475.57849494 Eh
Thermal Enthalpy correction       ...      0.00094421 Eh       0.59 kcal/mol
-----------------------------------------------------------------------
Total Enthalpy                    ...   -475.57755074 Eh

Note: Only C1 symmetry has been detected, increase convergence thresholds
      if your molecule has a higher symmetry. Symmetry factor of 1.0 is
      used for the rotational entropy correction.

Note: Rotational entropy computed according to Herzberg
Infrared and Raman Spectra, Chapter V,1, Van Nostrand Reinhold, 1945
Point Group:  C1, Symmetry Number:   1
Rotational constants in cm-1:     0.156599     0.000684     0.000681

Vibrational entropy computed according to the QRRHO of S. Grimme
Chem.Eur.J. 2012 18 9955

-------
ENTROPY
-------

The entropy contributions are T*S = T*(S(el)+S(vib)+S(rot)+S(trans))
     S(el)   - electronic entropy
     S(vib)  - vibrational entropy
     S(rot)  - rotational entropy
     S(trans)- translational entropy
The entropies will be listed as multiplied by the temperature to get
units of energy

Electronic entropy                ...      0.00000000 Eh      0.00 kcal/mol
Vibrational entropy               ...      0.01721203 Eh     10.80 kcal/mol
Rotational entropy                ...      0.01726850 Eh     10.84 kcal/mol
Translational entropy             ...      0.01932890 Eh     12.13 kcal/mol
-----------------------------------------------------------------------
Final entropy term                ...      0.05380943 Eh     33.77 kcal/mol

In case the symmetry of your molecule has not been determined correctly
or in case you have a reason to use a different symmetry number we print
out the resulting rotational entropy values for sn=1,12 :
 --------------------------------------------------------
|  sn= 1 | S(rot)=       0.01726850 Eh     10.84 kcal/mol|
|  sn= 2 | S(rot)=       0.01661405 Eh     10.43 kcal/mol|
|  sn= 3 | S(rot)=       0.01623121 Eh     10.19 kcal/mol|
|  sn= 4 | S(rot)=       0.01595959 Eh     10.01 kcal/mol|
|  sn= 5 | S(rot)=       0.01574890 Eh      9.88 kcal/mol|
|  sn= 6 | S(rot)=       0.01557676 Eh      9.77 kcal/mol|
|  sn= 7 | S(rot)=       0.01543121 Eh      9.68 kcal/mol|
|  sn= 8 | S(rot)=       0.01530513 Eh      9.60 kcal/mol|
|  sn= 9 | S(rot)=       0.01519392 Eh      9.53 kcal/mol|
|  sn=10 | S(rot)=       0.01509445 Eh      9.47 kcal/mol|
|  sn=11 | S(rot)=       0.01500446 Eh      9.42 kcal/mol|
|  sn=12 | S(rot)=       0.01492230 Eh      9.36 kcal/mol|
 --------------------------------------------------------

-------------------
GIBBS FREE ENERGY

                             ****ORCA TERMINATED NORMALLY****
TOTAL RUN TIME: 0 days 16 hours 49 minutes 28 seconds 353 msec
