                         Program Version 5.0.4 -  RELEASE  -
|  1> !B3LYP DEF2-SVP OPT FREQ D4 SOSCF
|  2>
|  3> * xyz 0 1
|  4>    C       -4.88767        2.95686        0.02707
|  5>    C       -6.15302        2.34938        0.01615
|  6>    C       -6.26360        0.95516       -0.00229
|  7>    C       -5.11296        0.16130       -0.00991
|  8>    C       -3.85004        0.76061        0.00090
|  9>    C       -3.73592        2.15454        0.01934
| 10>    H       -7.05088        2.95462        0.02191
| 11>    H       -7.24102        0.49030       -0.01066
| 12>    H       -5.19989       -0.91746       -0.02418
| 13>    H       -2.95968        0.14520       -0.00501
| 14>    H       -2.75274        2.60816        0.02759
| 15>    N       -4.77389        4.36869        0.04575
| 16>    H       -5.61485        4.96434        0.05152
| 17>    H       -3.84840        4.82195        0.05385
| 18> **                         ****END OF INPUT****
 Total Charge           Charge          ....    0
 Multiplicity           Mult            ....    1
 Number of Electrons    NEL             ....   50
Dispersion correction           -0.020928739
FINAL SINGLE POINT ENERGY      -287.235564914789
Dispersion correction            ... Starting D4
Dispersion correction           -0.020982284
FINAL SINGLE POINT ENERGY      -287.238046860793
Dispersion correction            ... Starting D4
Dispersion correction           -0.020987106
FINAL SINGLE POINT ENERGY      -287.238253699772
Dispersion correction            ... Starting D4
Dispersion correction           -0.020980990
FINAL SINGLE POINT ENERGY      -287.238299193882
Dispersion correction            ... Starting D4
Dispersion correction           -0.020978770
FINAL SINGLE POINT ENERGY      -287.238303507069
Dispersion correction            ... Starting D4
                    ***********************HURRAY********************

CARTESIAN COORDINATES (ANGSTROEM)
---------------------------------
  C     -4.885785    2.978353    0.027333
  C     -6.150744    2.352589    0.016100
  C     -6.255363    0.962691   -0.002189
  C     -5.113534    0.154908   -0.009911
  C     -3.856983    0.769184    0.000991
  C     -3.737547    2.157879    0.019273
  H     -7.054392    2.969492    0.021970
  H     -7.248203    0.503953   -0.010544
  H     -5.201369   -0.933621   -0.024162
  H     -2.950267    0.157577   -0.004875
  H     -2.746786    2.622006    0.027565
  N     -4.775439    4.348554    0.045620
  H     -5.596486    4.934170    0.051170
  H     -3.871663    4.795917    0.053689

 Multiplicity           Mult            ....    1
 Number of Electrons    NEL             ....   50
 Basis Dimension        Dim             ....  133

ORBITAL ENERGIES
----------------

  NO   OCC          E(Eh)            E(eV)
   0   2.0000     -14.330705      -389.9583
   1   2.0000     -10.221662      -278.1456
   2   2.0000     -10.177035      -276.9312
   3   2.0000     -10.177019      -276.9308
   4   2.0000     -10.171455      -276.7794
   5   2.0000     -10.171438      -276.7789
   6   2.0000     -10.165178      -276.6085
   7   2.0000      -0.904210       -24.6048
   8   2.0000      -0.816318       -22.2131
   9   2.0000      -0.723927       -19.6991
  10   2.0000      -0.706865       -19.2348
  11   2.0000      -0.597677       -16.2636
  12   2.0000      -0.587045       -15.9743
  13   2.0000      -0.517831       -14.0909
  14   2.0000      -0.510274       -13.8853
  15   2.0000      -0.467619       -12.7246
  16   2.0000      -0.421695       -11.4749
  17   2.0000      -0.421145       -11.4599
  18   2.0000      -0.406850       -11.0709
  19   2.0000      -0.376809       -10.2535
  20   2.0000      -0.349126        -9.5002
  21   2.0000      -0.331305        -9.0153
  22   2.0000      -0.303829        -8.2676
  23   2.0000      -0.242085        -6.5875
  24   2.0000      -0.192682        -5.2431
  25   0.0000       0.005596         0.1523
  26   0.0000       0.025104         0.6831
  27   0.0000       0.055235         1.5030
  28   0.0000       0.077154         2.0995
  29   0.0000       0.089468         2.4346

MULLIKEN ATOMIC CHARGES
-----------------------
   0 C :    0.086450
   1 C :   -0.035923
   2 C :    0.015887
   3 C :    0.007007
   4 C :    0.015692
   5 C :   -0.035412
   6 H :   -0.051302
   7 H :   -0.024721
   8 H :   -0.029899
   9 H :   -0.024557
  10 H :   -0.051679
  11 N :   -0.082769
  12 H :    0.105599
  13 H :    0.105626
Sum of atomic charges:   -0.0000000

LOEWDIN ATOMIC CHARGES
----------------------
   0 C :    0.030380
   1 C :   -0.075619
   2 C :   -0.016577
   3 C :   -0.069090
   4 C :   -0.016592
   5 C :   -0.075574
   6 H :    0.017566
   7 H :    0.024576
   8 H :    0.021091
   9 H :    0.024607
  10 H :    0.017505
  11 N :   -0.023675
  12 H :    0.070708
  13 H :    0.070695

  Mayer bond orders larger than 0.100000
B(  0-C ,  1-C ) :   1.3197 B(  0-C ,  5-C ) :   1.3202 B(  0-C , 11-N ) :   1.2386
B(  1-C ,  2-C ) :   1.4066 B(  1-C ,  6-H ) :   0.9835 B(  2-C ,  3-C ) :   1.3718
B(  2-C ,  7-H ) :   0.9782 B(  3-C ,  4-C ) :   1.3716 B(  3-C ,  8-H ) :   0.9869
B(  4-C ,  5-C ) :   1.4065 B(  4-C ,  9-H ) :   0.9783 B(  5-C , 10-H ) :   0.9834
B( 11-N , 12-H ) :   0.9510 B( 11-N , 13-H ) :   0.9510

Dispersion correction           -0.020978738
FINAL SINGLE POINT ENERGY      -287.238304119281

DIPOLE MOMENT
-------------
                                X             Y             Z
Electronic contribution:      0.00177       0.01722       0.00018
Nuclear contribution   :      0.06605       0.82587       0.01096
                        -----------------------------------------
Total Dipole Moment    :      0.06781       0.84309       0.01114
                        -----------------------------------------
Magnitude (a.u.)       :      0.84589
Magnitude (Debye)      :      2.15007

Dispersion correction in the Hessian             ... Starting D4

VIBRATIONAL FREQUENCIES
-----------------------

Scaling factor for frequencies =  1.000000000  (already applied!)

   0:         0.00 cm**-1
   1:         0.00 cm**-1
   2:         0.00 cm**-1
   3:         0.00 cm**-1
   4:         0.00 cm**-1
   5:         0.00 cm**-1
   6:      -363.43 cm**-1 ***imaginary mode***
   7:       221.97 cm**-1
   8:       382.36 cm**-1
   9:       388.26 cm**-1
  10:       424.10 cm**-1
  11:       526.27 cm**-1
  12:       538.81 cm**-1
  13:       634.47 cm**-1
  14:       712.93 cm**-1
  15:       774.53 cm**-1
  16:       828.78 cm**-1
  17:       840.57 cm**-1
  18:       893.69 cm**-1
  19:       982.45 cm**-1
  20:      1002.47 cm**-1
  21:      1005.65 cm**-1
  22:      1019.59 cm**-1
  23:      1048.95 cm**-1
  24:      1114.13 cm**-1
  25:      1164.87 cm**-1
  26:      1187.24 cm**-1
  27:      1341.59 cm**-1
  28:      1345.65 cm**-1
  29:      1374.50 cm**-1
  30:      1499.47 cm**-1
  31:      1537.94 cm**-1
  32:      1612.04 cm**-1
  33:      1634.84 cm**-1
  34:      1677.64 cm**-1
  35:      3158.01 cm**-1
  36:      3159.48 cm**-1
  37:      3174.88 cm**-1
  38:      3179.45 cm**-1
  39:      3197.65 cm**-1
  40:      3623.54 cm**-1
  41:      3749.10 cm**-1

IR SPECTRUM
-----------

 Mode   freq       eps      Int      T**2         TX        TY        TZ
       cm**-1   L/(mol*cm) km/mol    a.u.
----------------------------------------------------------------------------
  7:    221.97   0.000775    3.92  0.001090  (-0.000079 -0.000440  0.033011)
  8:    382.36   0.000519    2.62  0.000424  (-0.020524  0.001638 -0.000023)
  9:    388.26   0.000000    0.00  0.000000  ( 0.000105  0.000005  0.000321)
 10:    424.10   0.000000    0.00  0.000000  ( 0.000008  0.000005 -0.000017)
 11:    526.27   0.002963   14.98  0.001757  (-0.000091 -0.000521  0.041915)
 12:    538.81   0.000007    0.04  0.000004  (-0.000168 -0.002020  0.000027)
 13:    634.47   0.000065    0.33  0.000032  (-0.005632  0.000460 -0.000007)
 14:    712.93   0.005194   26.25  0.002274  ( 0.000107  0.000611 -0.047679)
 15:    774.53   0.005576   28.18  0.002247  (-0.000109 -0.000592  0.047396)
 16:    828.78   0.000000    0.00  0.000000  (-0.000003  0.000001 -0.000044)
 17:    840.57   0.001331    6.73  0.000494  (-0.001792 -0.022154 -0.000300)
 18:    893.69   0.001142    5.77  0.000399  ( 0.000044  0.000260 -0.019965)
 19:    982.45   0.000000    0.00  0.000000  (-0.000020  0.000004 -0.000003)
 20:   1002.47   0.000782    3.95  0.000243  ( 0.001236  0.015553  0.000207)
 21:   1005.65   0.000054    0.27  0.000017  (-0.000009 -0.000049  0.004080)
 22:   1019.59   0.000006    0.03  0.000002  (-0.001336  0.000095  0.000001)
 23:   1048.95   0.000567    2.87  0.000169  ( 0.001074  0.012942  0.000170)
 24:   1114.13   0.001404    7.10  0.000393  ( 0.019765 -0.001624  0.000026)
 25:   1164.87   0.000515    2.60  0.000138  (-0.011709  0.000893 -0.000015)
 26:   1187.24   0.002206   11.15  0.000580  ( 0.001915  0.024003  0.000316)
 27:   1341.59   0.010796   54.56  0.002511  (-0.003963 -0.049951 -0.000670)
 28:   1345.65   0.000078    0.40  0.000018  ( 0.004254 -0.000302  0.000006)
 29:   1374.50   0.002931   14.81  0.000665  ( 0.025712 -0.002085  0.000033)
 30:   1499.47   0.000038    0.19  0.000008  (-0.002788  0.000222 -0.000003)
 31:   1537.94   0.010988   55.53  0.002230  ( 0.003829  0.047058  0.000632)
 32:   1612.04   0.018834   95.18  0.003646  (-0.004854 -0.060180 -0.000799)
 33:   1634.84   0.001510    7.63  0.000288  (-0.016918  0.001419 -0.000021)
 34:   1677.64   0.039022  197.20  0.007259  ( 0.006835  0.084915  0.001130)
 35:   3158.01   0.003801   19.21  0.000376  ( 0.000345  0.019377  0.000249)
 36:   3159.48   0.000918    4.64  0.000091  ( 0.009401  0.001512  0.000041)
 37:   3174.88   0.000597    3.02  0.000059  ( 0.000297  0.007652  0.000097)
 38:   3179.45   0.006786   34.30  0.000666  ( 0.025742 -0.001849  0.000036)
 39:   3197.65   0.002343   11.84  0.000229  (-0.001128 -0.015077 -0.000194)
 40:   3623.54   0.013223   66.82  0.001139  ( 0.002653  0.033638  0.000446)
 41:   3749.10   0.006355   32.11  0.000529  (-0.022939  0.001666 -0.000037)

--------------------------
THERMOCHEMISTRY AT 298.15K
--------------------------

Temperature         ... 298.15 K
Pressure            ... 1.00 atm
Total Mass          ... 93.13 AMU

Throughout the following assumptions are being made:
  (1) The electronic state is orbitally nondegenerate
  (2) There are no thermally accessible electronically excited states
  (3) Hindered rotations indicated by low frequency modes are not
      treated as such but are treated as vibrations and this may
      cause some error
  (4) All equations used are the standard statistical mechanics
      equations for an ideal gas
  (5) All vibrations are strictly harmonic

freq.     221.97  E(vib)   ...       0.33
freq.     382.36  E(vib)   ...       0.21
freq.     388.26  E(vib)   ...       0.20
freq.     424.10  E(vib)   ...       0.18
freq.     526.27  E(vib)   ...       0.13
freq.     538.81  E(vib)   ...       0.12
freq.     634.47  E(vib)   ...       0.09
freq.     712.93  E(vib)   ...       0.07
freq.     774.53  E(vib)   ...       0.05
freq.     828.78  E(vib)   ...       0.04
freq.     840.57  E(vib)   ...       0.04
freq.     893.69  E(vib)   ...       0.03
freq.     982.45  E(vib)   ...       0.02
freq.    1002.47  E(vib)   ...       0.02
freq.    1005.65  E(vib)   ...       0.02
freq.    1019.59  E(vib)   ...       0.02
freq.    1048.95  E(vib)   ...       0.02
freq.    1114.13  E(vib)   ...       0.01
freq.    1164.87  E(vib)   ...       0.01
freq.    1187.24  E(vib)   ...       0.01
freq.    1341.59  E(vib)   ...       0.01
freq.    1345.65  E(vib)   ...       0.01
freq.    1374.50  E(vib)   ...       0.01
freq.    1499.47  E(vib)   ...       0.00
freq.    1537.94  E(vib)   ...       0.00
freq.    1612.04  E(vib)   ...       0.00
freq.    1634.84  E(vib)   ...       0.00
freq.    1677.64  E(vib)   ...       0.00
freq.    3158.01  E(vib)   ...       0.00
freq.    3159.48  E(vib)   ...       0.00
freq.    3174.88  E(vib)   ...       0.00
freq.    3179.45  E(vib)   ...       0.00
freq.    3197.65  E(vib)   ...       0.00
freq.    3623.54  E(vib)   ...       0.00
freq.    3749.10  E(vib)   ...       0.00

------------
INNER ENERGY
------------

The inner energy is: U= E(el) + E(ZPE) + E(vib) + E(rot) + E(trans)
    E(el)   - is the total energy from the electronic structure calculation
              = E(kin-el) + E(nuc-el) + E(el-el) + E(nuc-nuc)
    E(ZPE)  - the the zero temperature vibrational energy from the frequency calculation
    E(vib)  - the the finite temperature correction to E(ZPE) due to population
              of excited vibrational states
    E(rot)  - is the rotational thermal energy
    E(trans)- is the translational thermal energy

Summary of contributions to the inner energy U:
Electronic energy                ...   -287.23830412 Eh
Zero point energy                ...      0.11609061 Eh      72.85 kcal/mol
Thermal vibrational correction   ...      0.00267439 Eh       1.68 kcal/mol
Thermal rotational correction    ...      0.00141627 Eh       0.89 kcal/mol
Thermal translational correction ...      0.00141627 Eh       0.89 kcal/mol
-----------------------------------------------------------------------
Total thermal energy                   -287.11670658 Eh

Summary of corrections to the electronic energy:
(perhaps to be used in another calculation)
Total thermal correction                  0.00550693 Eh       3.46 kcal/mol
Non-thermal (ZPE) correction              0.11609061 Eh      72.85 kcal/mol
-----------------------------------------------------------------------
Total correction                          0.12159754 Eh      76.30 kcal/mol

--------
ENTHALPY
--------

The enthalpy is H = U + kB*T
                kB is Boltzmann's constant
Total free energy                 ...   -287.11670658 Eh
Thermal Enthalpy correction       ...      0.00094421 Eh       0.59 kcal/mol
-----------------------------------------------------------------------
Total Enthalpy                    ...   -287.11576237 Eh

Note: Only C1 symmetry has been detected, increase convergence thresholds
      if your molecule has a higher symmetry. Symmetry factor of 1.0 is
      used for the rotational entropy correction.

Note: Rotational entropy computed according to Herzberg
Infrared and Raman Spectra, Chapter V,1, Van Nostrand Reinhold, 1945
Point Group:  C1, Symmetry Number:   1
Rotational constants in cm-1:     0.186761     0.086249     0.059001

Vibrational entropy computed according to the QRRHO of S. Grimme
Chem.Eur.J. 2012 18 9955

-------
ENTROPY
-------

The entropy contributions are T*S = T*(S(el)+S(vib)+S(rot)+S(trans))
     S(el)   - electronic entropy
     S(vib)  - vibrational entropy
     S(rot)  - rotational entropy
     S(trans)- translational entropy
The entropies will be listed as multiplied by the temperature to get
units of energy

Electronic entropy                ...      0.00000000 Eh      0.00 kcal/mol
Vibrational entropy               ...      0.00387671 Eh      2.43 kcal/mol
Rotational entropy                ...      0.01279592 Eh      8.03 kcal/mol
Translational entropy             ...      0.01877043 Eh     11.78 kcal/mol
-----------------------------------------------------------------------
Final entropy term                ...      0.03544305 Eh     22.24 kcal/mol

In case the symmetry of your molecule has not been determined correctly
or in case you have a reason to use a different symmetry number we print
out the resulting rotational entropy values for sn=1,12 :
 --------------------------------------------------------
|  sn= 1 | S(rot)=       0.01279592 Eh      8.03 kcal/mol|
|  sn= 2 | S(rot)=       0.01214146 Eh      7.62 kcal/mol|
|  sn= 3 | S(rot)=       0.01175863 Eh      7.38 kcal/mol|
|  sn= 4 | S(rot)=       0.01148701 Eh      7.21 kcal/mol|
|  sn= 5 | S(rot)=       0.01127632 Eh      7.08 kcal/mol|
|  sn= 6 | S(rot)=       0.01110417 Eh      6.97 kcal/mol|
|  sn= 7 | S(rot)=       0.01095863 Eh      6.88 kcal/mol|
|  sn= 8 | S(rot)=       0.01083255 Eh      6.80 kcal/mol|
|  sn= 9 | S(rot)=       0.01072134 Eh      6.73 kcal/mol|
|  sn=10 | S(rot)=       0.01062186 Eh      6.67 kcal/mol|
|  sn=11 | S(rot)=       0.01053187 Eh      6.61 kcal/mol|
|  sn=12 | S(rot)=       0.01044972 Eh      6.56 kcal/mol|
 --------------------------------------------------------

-------------------
GIBBS FREE ENERGY
-------------------

The Gibbs free energy is G = H - T*S

Total enthalpy                    ...   -287.11576237 Eh
Total entropy correction          ...     -0.03544305 Eh    -22.24 kcal/mol
-----------------------------------------------------------------------
Final Gibbs free energy         ...   -287.15120543 Eh

For completeness - the Gibbs free energy minus the electronic energy
G-E(el)                           ...      0.08709869 Eh     54.66 kcal/mol

                             ****ORCA TERMINATED NORMALLY****
TOTAL RUN TIME: 0 days 0 hours 11 minutes 49 seconds 721 msec
