                         Program Version 5.0.4 -  RELEASE  -
|  1> !B3LYP DEF2-QZVP OPT FREQ SLOWCONV SOSCF
|  2>
|  3> * xyz 0 1
|  4> Fe 0 0 0
|  5> Fe 2 0 0
|  6> **                         ****END OF INPUT****
 Total Charge           Charge          ....    0
 Multiplicity           Mult            ....    1
 Number of Electrons    NEL             ....   52
FINAL SINGLE POINT ENERGY     -2527.058299353640
FINAL SINGLE POINT ENERGY     -2527.060082438994
FINAL SINGLE POINT ENERGY     -2527.089799500184
FINAL SINGLE POINT ENERGY     -2527.105121298257
FINAL SINGLE POINT ENERGY     -2527.105164296782
FINAL SINGLE POINT ENERGY     -2527.105178942456
                    ***********************HURRAY********************

CARTESIAN COORDINATES (ANGSTROEM)
---------------------------------
  Fe     0.167224    0.000000    0.000000
  Fe     1.832776    0.000000    0.000000

 Multiplicity           Mult            ....    1
 Number of Electrons    NEL             ....   52
 Basis Dimension        Dim             ....  168

ORBITAL ENERGIES
----------------

  NO   OCC          E(Eh)            E(eV)
   0   2.0000    -256.072837     -6968.0961
   1   2.0000    -256.072831     -6968.0960
   2   2.0000     -29.983375      -815.8891
   3   2.0000     -29.983369      -815.8889
   4   2.0000     -25.881428      -704.2695
   5   2.0000     -25.881370      -704.2679
   6   2.0000     -25.828266      -702.8228
   7   2.0000     -25.828266      -702.8228
   8   2.0000     -25.828234      -702.8220
   9   2.0000     -25.828234      -702.8220
  10   2.0000      -3.430448       -93.3472
  11   2.0000      -3.387526       -92.1793
  12   2.0000      -2.311378       -62.8958
  13   2.0000      -2.175557       -59.1999
  14   2.0000      -2.158514       -58.7362
  15   2.0000      -2.158514       -58.7361
  16   2.0000      -2.135454       -58.1087
  17   2.0000      -2.135454       -58.1086
  18   2.0000      -0.318922        -8.6783
  19   2.0000      -0.297673        -8.1001
  20   2.0000      -0.297673        -8.1001
  21   2.0000      -0.214161        -5.8276
  22   2.0000      -0.214154        -5.8274
  23   2.0000      -0.195951        -5.3321
  24   2.0000      -0.160403        -4.3648
  25   2.0000      -0.160388        -4.3644
  26   0.0000      -0.079205        -2.1553
  27   0.0000      -0.075383        -2.0513
  28   0.0000      -0.073719        -2.0060
  29   0.0000      -0.073719        -2.0060
  30   0.0000      -0.031383        -0.8540

MULLIKEN ATOMIC CHARGES
-----------------------
   0 Fe:    0.000845
   1 Fe:   -0.000845
Sum of atomic charges:    0.0000000

LOEWDIN ATOMIC CHARGES
----------------------
   0 Fe:    0.000007
   1 Fe:   -0.000007

  Mayer bond orders larger than 0.100000
B(  0-Fe,  1-Fe) :   4.2241

FINAL SINGLE POINT ENERGY     -2527.105179067219

DIPOLE MOMENT
-------------
                                X             Y             Z
Electronic contribution:     -0.00001       0.00000       0.00000
Nuclear contribution   :      0.00000       0.00000       0.00000
                        -----------------------------------------
Total Dipole Moment    :     -0.00001       0.00000       0.00000
                        -----------------------------------------
Magnitude (a.u.)       :      0.00001
Magnitude (Debye)      :      0.00002

VIBRATIONAL FREQUENCIES
-----------------------

Scaling factor for frequencies =  1.000000000  (already applied!)

   0:         0.00 cm**-1
   1:         0.00 cm**-1
   2:         0.00 cm**-1
   3:         0.00 cm**-1
   4:         0.00 cm**-1
   5:       627.26 cm**-1

IR SPECTRUM
-----------

 Mode   freq       eps      Int      T**2         TX        TY        TZ
       cm**-1   L/(mol*cm) km/mol    a.u.
----------------------------------------------------------------------------
  5:    627.26   0.000000    0.00  0.000000  ( 0.000004  0.000000  0.000000)

--------------------------
THERMOCHEMISTRY AT 298.15K
--------------------------

Temperature         ... 298.15 K
Pressure            ... 1.00 atm
Total Mass          ... 111.70 AMU
The molecule is recognized as being linear

Throughout the following assumptions are being made:
  (1) The electronic state is orbitally nondegenerate
  (2) There are no thermally accessible electronically excited states
  (3) Hindered rotations indicated by low frequency modes are not
      treated as such but are treated as vibrations and this may
      cause some error
  (4) All equations used are the standard statistical mechanics
      equations for an ideal gas
  (5) All vibrations are strictly harmonic

freq.     627.26  E(vib)   ...       0.09

------------
INNER ENERGY
------------

The inner energy is: U= E(el) + E(ZPE) + E(vib) + E(rot) + E(trans)
    E(el)   - is the total energy from the electronic structure calculation
              = E(kin-el) + E(nuc-el) + E(el-el) + E(nuc-nuc)
    E(ZPE)  - the the zero temperature vibrational energy from the frequency calculation
    E(vib)  - the the finite temperature correction to E(ZPE) due to population
              of excited vibrational states
    E(rot)  - is the rotational thermal energy
    E(trans)- is the translational thermal energy

Summary of contributions to the inner energy U:
Electronic energy                ...  -2527.10517907 Eh
Zero point energy                ...      0.00142901 Eh       0.90 kcal/mol
Thermal vibrational correction   ...      0.00014557 Eh       0.09 kcal/mol
Thermal rotational correction    ...      0.00094418 Eh       0.59 kcal/mol
Thermal translational correction ...      0.00141627 Eh       0.89 kcal/mol
-----------------------------------------------------------------------
Total thermal energy                  -2527.10124404 Eh

Summary of corrections to the electronic energy:
(perhaps to be used in another calculation)
Total thermal correction                  0.00250603 Eh       1.57 kcal/mol
Non-thermal (ZPE) correction              0.00142901 Eh       0.90 kcal/mol
-----------------------------------------------------------------------
Total correction                          0.00393503 Eh       2.47 kcal/mol

--------
ENTHALPY
--------

The enthalpy is H = U + kB*T
                kB is Boltzmann's constant
Total free energy                 ...  -2527.10124404 Eh
Thermal Enthalpy correction       ...      0.00094421 Eh       0.59 kcal/mol
-----------------------------------------------------------------------
Total Enthalpy                    ...  -2527.10029983 Eh

Note: Rotational entropy computed according to Herzberg
Infrared and Raman Spectra, Chapter V,1, Van Nostrand Reinhold, 1945
Point Group:  Dinfh, Symmetry Number:   2
Rotational constants in cm-1:     0.000000     0.217614     0.217614

Vibrational entropy computed according to the QRRHO of S. Grimme
Chem.Eur.J. 2012 18 9955

-------
ENTROPY
-------

The entropy contributions are T*S = T*(S(el)+S(vib)+S(rot)+S(trans))
     S(el)   - electronic entropy
     S(vib)  - vibrational entropy
     S(rot)  - rotational entropy
     S(trans)- translational entropy
The entropies will be listed as multiplied by the temperature to get
units of energy

Electronic entropy                ...      0.00000000 Eh      0.00 kcal/mol
Vibrational entropy               ...      0.00019267 Eh      0.12 kcal/mol
Rotational entropy                ...      0.00676571 Eh      4.25 kcal/mol
Translational entropy             ...      0.01902795 Eh     11.94 kcal/mol
-----------------------------------------------------------------------
Final entropy term                ...      0.02598633 Eh     16.31 kcal/mol

-------------------
GIBBS FREE ENERGY
-------------------

The Gibbs free energy is G = H - T*S

Total enthalpy                    ...  -2527.10029983 Eh
Total entropy correction          ...     -0.02598633 Eh    -16.31 kcal/mol
-----------------------------------------------------------------------
Final Gibbs free energy         ...  -2527.12628615 Eh

For completeness - the Gibbs free energy minus the electronic energy
G-E(el)                           ...     -0.02110709 Eh    -13.24 kcal/mol

                             ****ORCA TERMINATED NORMALLY****
TOTAL RUN TIME: 0 days 0 hours 29 minutes 46 seconds 117 msec
