                         Program Version 5.0.4 -  RELEASE  -
|  1> !B3LYP DEF2-SVP FREQ
|  2>
|  3> * xyz 0 1
|  4>    C        2.77902        2.33714       -3.56558
|  5>    O        1.97196        3.20221       -3.36556
|  6>    O        3.56412        1.46259       -3.78648
|  7>    C        0.60339        5.89678       -2.07378
|  8>    C        2.95432        5.17091       -5.75427
|  9>    C        5.43655       -1.02628       -4.46233
| 10>    O        1.58090        4.93144       -5.50205
| 11>    O        1.94447        5.49403       -1.86606
| 12>    O        5.80082        0.03070       -3.59425
| 13>    H        5.01658        0.64196       -3.59596
| 14>    H        2.04502        4.64748       -2.36795
| 15>    H        1.57211        4.29491       -4.74615
| 16>    H        3.04447        5.90438       -6.55893
| 17>    H        3.43024        5.56411       -4.85237
| 18>    H        3.43837        4.24006       -6.06007
| 19>    H        0.45375        6.87734       -1.61556
| 20>    H        0.39816        5.96617       -3.14436
| 21>    H       -0.07266        5.17742       -1.60685
| 22>    C        0.48624        1.93839       -0.84179
| 23>    H        0.88909        2.79344       -0.29176
| 24>    H       -0.97145        0.86560        0.02547
| 25>    H       -0.18663        1.38513       -0.18164
| 26>    H        6.26040       -1.74202       -4.51377
| 27>    H        4.54746       -1.52906       -4.07409
| 28>    H        5.24173       -0.62990       -5.46178
| 29>    C        1.48710       -0.59411       -5.04830
| 30>    N        1.78993        0.74763       -4.57677
| 31>    H        2.59673        1.08390       -5.13471
| 32>    H        2.20273        0.67329       -3.64550
| 33>    H        2.37476       -1.23144       -5.00042
| 34>    H        0.70133       -1.04092       -4.43307
| 35>    H        1.13687       -0.55811       -6.08360
| 36>    O       -0.26338        2.42084       -1.94647
| 37>    H        0.42432        2.73465       -2.58348
| 38> **                         ****END OF INPUT****

CARTESIAN COORDINATES (ANGSTROEM)
---------------------------------
  C      2.779020    2.337140   -3.565580
  O      1.971960    3.202210   -3.365560
  O      3.564120    1.462590   -3.786480
  C      0.603390    5.896780   -2.073780
  C      2.954320    5.170910   -5.754270
  C      5.436550   -1.026280   -4.462330
  O      1.580900    4.931440   -5.502050
  O      1.944470    5.494030   -1.866060
  O      5.800820    0.030700   -3.594250
  H      5.016580    0.641960   -3.595960
  H      2.045020    4.647480   -2.367950
  H      1.572110    4.294910   -4.746150
  H      3.044470    5.904380   -6.558930
  H      3.430240    5.564110   -4.852370
  H      3.438370    4.240060   -6.060070
  H      0.453750    6.877340   -1.615560
  H      0.398160    5.966170   -3.144360
  H     -0.072660    5.177420   -1.606850
  C      0.486240    1.938390   -0.841790
  H      0.889090    2.793440   -0.291760
  H     -0.971450    0.865600    0.025470
  H     -0.186630    1.385130   -0.181640
  H      6.260400   -1.742020   -4.513770
  H      4.547460   -1.529060   -4.074090
  H      5.241730   -0.629900   -5.461780
  C      1.487100   -0.594110   -5.048300
  N      1.789930    0.747630   -4.576770
  H      2.596730    1.083900   -5.134710
  H      2.202730    0.673290   -3.645500
  H      2.374760   -1.231440   -5.000420
  H      0.701330   -1.040920   -4.433070
  H      1.136870   -0.558110   -6.083600
  O     -0.263380    2.420840   -1.946470
  H      0.424320    2.734650   -2.583480

 Total Charge           Charge          ....    0
 Multiplicity           Mult            ....    1
 Number of Electrons    NEL             ....  112
 Basis Dimension        Dim             ....  287

ORBITAL ENERGIES
----------------

  NO   OCC          E(Eh)            E(eV)
   0   2.0000     -19.295848      -525.0667
   1   2.0000     -19.285022      -524.7721
   2   2.0000     -19.165978      -521.5328
   3   2.0000     -19.125708      -520.4370
   4   2.0000     -19.113599      -520.1075
   5   2.0000     -19.113453      -520.1035
   6   2.0000     -14.340393      -390.2219
   7   2.0000     -10.467180      -284.8264
   8   2.0000     -10.257163      -279.1116
   9   2.0000     -10.232503      -278.4406
  10   2.0000     -10.228349      -278.3275
  11   2.0000     -10.225701      -278.2555
  12   2.0000     -10.212816      -277.9048
  13   2.0000      -1.222192       -33.2575
  14   2.0000      -1.179897       -32.1066
  15   2.0000      -1.031577       -28.0706
  16   2.0000      -1.000620       -27.2283
  17   2.0000      -0.990681       -26.9578
  18   2.0000      -0.988037       -26.8859
  19   2.0000      -0.915217       -24.9043
  20   2.0000      -0.702801       -19.1242
  21   2.0000      -0.687456       -18.7066
  22   2.0000      -0.678590       -18.4654
  23   2.0000      -0.675195       -18.3730
  24   2.0000      -0.664360       -18.0781
  25   2.0000      -0.651486       -17.7278
  26   2.0000      -0.619928       -16.8691
  27   2.0000      -0.610146       -16.6029
  28   2.0000      -0.577189       -15.7061
  29   2.0000      -0.530995       -14.4491
  30   2.0000      -0.510478       -13.8908
  31   2.0000      -0.499984       -13.6053
  32   2.0000      -0.497765       -13.5449
  33   2.0000      -0.488851       -13.3023
  34   2.0000      -0.487370       -13.2620
  35   2.0000      -0.473354       -12.8806
  36   2.0000      -0.451978       -12.2989
  37   2.0000      -0.449259       -12.2250
  38   2.0000      -0.445254       -12.1160
  39   2.0000      -0.438866       -11.9421
  40   2.0000      -0.431172       -11.7328
  41   2.0000      -0.427910       -11.6440
  42   2.0000      -0.423308       -11.5188
  43   2.0000      -0.414226       -11.2717
  44   2.0000      -0.411000       -11.1839
  45   2.0000      -0.401375       -10.9220
  46   2.0000      -0.386542       -10.5183
  47   2.0000      -0.336955        -9.1690
  48   2.0000      -0.333652        -9.0791
  49   2.0000      -0.324993        -8.8435
  50   2.0000      -0.319331        -8.6894
  51   2.0000      -0.279162        -7.5964
  52   2.0000      -0.271417        -7.3856
  53   2.0000      -0.261450        -7.1144
  54   2.0000      -0.256997        -6.9932
  55   2.0000      -0.200065        -5.4441
  56   0.0000      -0.120982        -3.2921
  57   0.0000      -0.076893        -2.0924
  58   0.0000      -0.074268        -2.0209
  59   0.0000      -0.019565        -0.5324
  60   0.0000       0.033172         0.9027

MULLIKEN ATOMIC CHARGES
-----------------------
   0 C :    0.365286
   1 O :   -0.194639
   2 O :   -0.165972
   3 C :    0.144308
   4 C :    0.149363
   5 C :    0.161696
   6 O :   -0.347249
   7 O :   -0.363619
   8 O :   -0.367120
   9 H :    0.160673
  10 H :    0.153423
  11 H :    0.167743
  12 H :    0.031039
  13 H :    0.006940
  14 H :   -0.018600
  15 H :    0.016776
  16 H :    0.002542
  17 H :   -0.002368
  18 C :    0.078017
  19 H :    0.019003
  20 H :   -0.013165
  21 H :   -0.010197
  22 H :    0.022574
  23 H :    0.001377
  24 H :   -0.010521
  25 C :    0.068789
  26 N :   -0.269854
  27 H :    0.125346
  28 H :    0.122328
  29 H :   -0.002898
  30 H :    0.032608
  31 H :    0.025213
  32 O :   -0.287884
  33 H :    0.199041
Sum of atomic charges:    0.0000000

LOEWDIN ATOMIC CHARGES
----------------------
   0 C :    0.228657
   1 O :   -0.046926
   2 O :   -0.023852
   3 C :    0.060433
   4 C :    0.063364
   5 C :    0.063878
   6 O :   -0.167857
   7 O :   -0.180703
   8 O :   -0.185860
   9 H :    0.042639
  10 H :    0.037427
  11 H :    0.047312
  12 H :    0.023869
  13 H :    0.002868
  14 H :   -0.009132
  15 H :    0.017975
  16 H :   -0.000046
  17 H :   -0.003253
  18 C :    0.003728
  19 H :   -0.006342
  20 H :    0.022837
  21 H :   -0.020456
  22 H :    0.021038
  23 H :   -0.003820
  24 H :   -0.004359
  25 C :    0.011069
  26 N :   -0.094289
  27 H :    0.055065
  28 H :    0.033086
  29 H :    0.004821
  30 H :    0.026676
  31 H :    0.023474
  32 O :   -0.111851
  33 H :    0.068530

  Mayer bond orders larger than 0.100000
B(  0-C ,  1-O ) :   1.9050 B(  0-C ,  2-O ) :   1.9848 B(  0-C , 26-N ) :   0.2093
B(  1-O ,  2-O ) :   0.2142 B(  3-C ,  7-O ) :   1.0221 B(  3-C , 15-H ) :   0.9764
B(  3-C , 16-H ) :   0.9655 B(  3-C , 17-H ) :   0.9650 B(  4-C ,  6-O ) :   1.0303
B(  4-C , 12-H ) :   0.9801 B(  4-C , 13-H ) :   0.9690 B(  4-C , 14-H ) :   0.9679
B(  5-C ,  8-O ) :   1.0320 B(  5-C , 22-H ) :   0.9750 B(  5-C , 23-H ) :   0.9669
B(  5-C , 24-H ) :   0.9709 B(  6-O , 11-H ) :   0.9617 B(  7-O , 10-H ) :   0.9691
B(  8-O ,  9-H ) :   0.9663 B( 18-C , 19-H ) :   0.9309 B( 18-C , 20-H ) :   0.4690
B( 18-C , 21-H ) :   0.6632 B( 18-C , 32-O ) :   1.1207 B( 20-H , 21-H ) :   0.3846
B( 25-C , 26-N ) :   1.0563 B( 25-C , 29-H ) :   0.9628 B( 25-C , 30-H ) :   0.9777
B( 25-C , 31-H ) :   0.9769 B( 26-N , 27-H ) :   0.9429 B( 26-N , 28-H ) :   0.9215
B( 32-O , 33-H ) :   0.9269

FINAL SINGLE POINT ENERGY      -746.027681013611

DIPOLE MOMENT
-------------
                                X             Y             Z
Electronic contribution:      3.97927       4.43739       0.34068
Nuclear contribution   :     -3.63313      -5.40863      -1.15194
                        -----------------------------------------
Total Dipole Moment    :      0.34613      -0.97124      -0.81125
                        -----------------------------------------
Magnitude (a.u.)       :      1.31196
Magnitude (Debye)      :      3.33474

VIBRATIONAL FREQUENCIES
-----------------------

Scaling factor for frequencies =  1.000000000  (already applied!)

   0:         0.00 cm**-1
   1:         0.00 cm**-1
   2:         0.00 cm**-1
   3:         0.00 cm**-1
   4:         0.00 cm**-1
   5:         0.00 cm**-1
   6:      -972.61 cm**-1 ***imaginary mode***
   7:      -770.76 cm**-1 ***imaginary mode***
   8:      -406.77 cm**-1 ***imaginary mode***
   9:      -322.79 cm**-1 ***imaginary mode***
  10:      -268.76 cm**-1 ***imaginary mode***
  11:      -256.17 cm**-1 ***imaginary mode***
  12:      -244.99 cm**-1 ***imaginary mode***
  13:      -227.47 cm**-1 ***imaginary mode***
  14:      -206.32 cm**-1 ***imaginary mode***
  15:      -178.21 cm**-1 ***imaginary mode***
  16:      -176.59 cm**-1 ***imaginary mode***
  17:      -133.94 cm**-1 ***imaginary mode***
  18:      -124.22 cm**-1 ***imaginary mode***
  19:      -119.42 cm**-1 ***imaginary mode***
  20:      -102.01 cm**-1 ***imaginary mode***
  21:       -63.92 cm**-1 ***imaginary mode***
  22:       -55.91 cm**-1 ***imaginary mode***
  23:       -34.26 cm**-1 ***imaginary mode***
  24:       -14.50 cm**-1 ***imaginary mode***
  25:        40.59 cm**-1
  26:        44.56 cm**-1
  27:        67.24 cm**-1
  28:        71.80 cm**-1
  29:       114.36 cm**-1
  30:       154.81 cm**-1
  31:       172.53 cm**-1
  32:       203.22 cm**-1
  33:       265.78 cm**-1
  34:       293.56 cm**-1
  35:       352.33 cm**-1
  36:       371.37 cm**-1
  37:       475.32 cm**-1
  38:       517.05 cm**-1
  39:       635.29 cm**-1
  40:       655.40 cm**-1
  41:       719.45 cm**-1
  42:       719.98 cm**-1
  43:       734.74 cm**-1
  44:       769.23 cm**-1
  45:       785.56 cm**-1
  46:       999.51 cm**-1
  47:      1052.71 cm**-1
  48:      1068.54 cm**-1
  49:      1074.92 cm**-1
  50:      1083.71 cm**-1
  51:      1109.73 cm**-1
  52:      1110.24 cm**-1
  53:      1111.02 cm**-1
  54:      1121.07 cm**-1
  55:      1147.82 cm**-1
  56:      1151.18 cm**-1
  57:      1160.03 cm**-1
  58:      1169.26 cm**-1
  59:      1208.49 cm**-1
  60:      1214.10 cm**-1
  61:      1273.25 cm**-1
  62:      1285.73 cm**-1
  63:      1424.95 cm**-1
  64:      1426.60 cm**-1
  65:      1429.36 cm**-1
  66:      1442.67 cm**-1
  67:      1443.74 cm**-1
  68:      1445.97 cm**-1
  69:      1452.16 cm**-1
  70:      1454.22 cm**-1
  71:      1457.40 cm**-1
  72:      1463.72 cm**-1
  73:      1469.46 cm**-1
  74:      1472.04 cm**-1
  75:      1479.89 cm**-1
  76:      1493.17 cm**-1
  77:      1495.38 cm**-1
  78:      1722.13 cm**-1
  79:      1814.16 cm**-1
  80:      1966.91 cm**-1
  81:      2176.84 cm**-1
  82:      2929.26 cm**-1
  83:      3078.54 cm**-1
  84:      3079.35 cm**-1
  85:      3086.75 cm**-1
  86:      3090.75 cm**-1
  87:      3154.67 cm**-1
  88:      3165.03 cm**-1
  89:      3166.31 cm**-1
  90:      3171.88 cm**-1
  91:      3185.01 cm**-1
  92:      3194.41 cm**-1
  93:      3199.42 cm**-1
  94:      3201.14 cm**-1
  95:      3204.22 cm**-1
  96:      3270.07 cm**-1
  97:      3436.99 cm**-1
  98:      3490.86 cm**-1
  99:      3532.01 cm**-1
 100:      3540.25 cm**-1
 101:      3564.42 cm**-1

IR SPECTRUM
-----------

 Mode   freq       eps      Int      T**2         TX        TY        TZ
       cm**-1   L/(mol*cm) km/mol    a.u.
----------------------------------------------------------------------------
 25:     40.59   0.000030    0.15  0.000228  (-0.010574 -0.005588 -0.009237)
 26:     44.56   0.000186    0.94  0.001305  ( 0.017624 -0.015293 -0.027586)
 27:     67.24   0.000968    4.89  0.004493  (-0.003056 -0.058206 -0.033102)
 28:     71.80   0.000260    1.31  0.001130  ( 0.026990 -0.015001 -0.013280)
 29:    114.36   0.000616    3.12  0.001682  ( 0.012156  0.014206 -0.036506)
 30:    154.81   0.000752    3.80  0.001517  (-0.019475  0.006303  0.033133)
 31:    172.53   0.000121    0.61  0.000219  ( 0.000719  0.008810 -0.011864)
 32:    203.22   0.000086    0.44  0.000132  (-0.009047 -0.003178  0.006345)
 33:    265.78   0.000182    0.92  0.000213  ( 0.008940 -0.010811 -0.004075)
 34:    293.56   0.000252    1.28  0.000268  ( 0.009201  0.006755 -0.011753)
 35:    352.33   0.000909    4.59  0.000805  ( 0.025437 -0.004286  0.011807)
 36:    371.37   0.002668   13.48  0.002242  ( 0.028949 -0.014081 -0.034718)
 37:    475.32   0.022165  112.01  0.014552  (-0.111739 -0.009364  0.044484)
 38:    517.05   0.025092  126.81  0.015144  ( 0.007214 -0.097855 -0.074275)
 39:    635.29   0.017293   87.39  0.008494  (-0.021682  0.041420  0.079427)
 40:    655.40   0.024203  122.31  0.011524  ( 0.024149 -0.040902 -0.096270)
 41:    719.45   0.026324  133.03  0.011418  (-0.039512 -0.052889  0.084023)
 42:    719.98   0.001059    5.35  0.000459  ( 0.018690  0.009634 -0.004093)
 43:    734.74   0.022974  116.10  0.009758  (-0.027882 -0.093339  0.016375)
 44:    769.23   0.003203   16.18  0.001299  ( 0.029235 -0.017285 -0.012074)
 45:    785.56   0.008650   43.71  0.003436  (-0.022015 -0.018727  0.050996)
 46:    999.51   0.025333  128.02  0.007909  ( 0.018731 -0.019836  0.084647)
 47:   1052.71   0.008251   41.70  0.002446  ( 0.024385 -0.042576  0.006215)
 48:   1068.54   0.008154   41.21  0.002381  (-0.042494 -0.011652  0.020972)
 49:   1074.92   0.017538   88.63  0.005091  (-0.015717 -0.055519 -0.041976)
 50:   1083.71   0.025672  129.73  0.007392  (-0.084360  0.016293 -0.003215)
 51:   1109.73   0.000468    2.37  0.000132  ( 0.007106  0.008171 -0.003805)
 52:   1110.24   0.000956    4.83  0.000269  ( 0.001655 -0.016218  0.001755)
 53:   1111.02   0.000095    0.48  0.000027  (-0.004212  0.002650  0.001397)
 54:   1121.07   0.000926    4.68  0.000258  (-0.009721  0.012423  0.002967)
 55:   1147.82   0.000311    1.57  0.000084  (-0.005355 -0.001145  0.007377)
 56:   1151.18   0.000296    1.50  0.000080  ( 0.003882  0.007968  0.001323)
 57:   1160.03   0.013090   66.15  0.003521  ( 0.020123  0.050167  0.024491)
 58:   1169.26   0.000134    0.68  0.000036  ( 0.002138  0.004495 -0.003305)
 59:   1208.49   0.002816   14.23  0.000727  (-0.025509 -0.004479 -0.007513)
 60:   1214.10   0.009805   49.55  0.002520  (-0.020502  0.030671 -0.034045)
 61:   1273.25   0.005629   28.45  0.001380  (-0.035098 -0.002898 -0.011808)
 62:   1285.73   0.008167   41.27  0.001982  ( 0.012676  0.018115 -0.038644)
 63:   1424.95   0.000799    4.04  0.000175  (-0.004106  0.011968  0.003870)
 64:   1426.60   0.001398    7.06  0.000306  ( 0.011707  0.010159 -0.008095)
 65:   1429.36   0.004242   21.44  0.000926  ( 0.007394 -0.024784 -0.016037)
 66:   1442.67   0.001945    9.83  0.000421  (-0.018218  0.008116  0.004798)
 67:   1443.74   0.002359   11.92  0.000510  ( 0.003297 -0.017572 -0.013792)
 68:   1445.97   0.005271   26.64  0.001138  (-0.032767  0.007725 -0.002074)
 69:   1452.16   0.000886    4.48  0.000190  (-0.005341 -0.009388  0.008586)
 70:   1454.22   0.000279    1.41  0.000060  ( 0.006447 -0.003906  0.001758)
 71:   1457.40   0.001304    6.59  0.000279  ( 0.014582  0.005264  0.006228)
 72:   1463.72   0.000774    3.91  0.000165  (-0.009046  0.005953 -0.006914)
 73:   1469.46   0.000391    1.98  0.000083  ( 0.003916  0.000048  0.008229)
 74:   1472.04   0.001318    6.66  0.000279  ( 0.011673  0.010896  0.004943)
 75:   1479.89   0.003229   16.32  0.000681  (-0.017685  0.019109 -0.001721)
 76:   1493.17   0.001277    6.45  0.000267  (-0.016029  0.002992  0.000961)
 77:   1495.38   0.007455   37.68  0.001556  ( 0.030841  0.014109  0.020138)
 78:   1722.13   0.000944    4.77  0.000171  (-0.005122 -0.001269 -0.011964)
 79:   1814.16   0.045979  232.36  0.007909  ( 0.065826  0.021183 -0.055922)
 80:   1966.91   0.058794  297.12  0.009328  ( 0.018194 -0.087749 -0.036015)
 81:   2176.84   0.170837  863.34  0.024491  (-0.103432  0.112213  0.034650)
 82:   2929.26   0.036666  185.29  0.003906  (-0.058363 -0.000452  0.022353)
 83:   3078.54   0.007819   39.51  0.000793  ( 0.010920  0.016074  0.020371)
 84:   3079.35   0.011026   55.72  0.001117  ( 0.032574 -0.004363 -0.006103)
 85:   3086.75   0.014450   73.02  0.001461  ( 0.001504  0.034280  0.016836)
 86:   3090.75   0.008968   45.32  0.000905  (-0.028259  0.010299  0.000914)
 87:   3154.67   0.023233  117.41  0.002298  (-0.006628  0.024653  0.040577)
 88:   3165.03   0.013277   67.10  0.001309  (-0.018984 -0.020453  0.023029)
 89:   3166.31   0.012472   63.03  0.001229  ( 0.003239 -0.027588 -0.021393)
 90:   3171.88   0.006451   32.60  0.000635  (-0.021223  0.009340 -0.009853)
 91:   3185.01   0.007532   38.06  0.000738  ( 0.008467  0.015197 -0.020864)
 92:   3194.41   0.003082   15.57  0.000301  (-0.005577 -0.003812  0.015981)
 93:   3199.42   0.009026   45.62  0.000880  (-0.026232  0.013367 -0.003692)
 94:   3201.14   0.006592   33.31  0.000643  ( 0.004459  0.021720  0.012288)
 95:   3204.22   0.005639   28.50  0.000549  ( 0.004482 -0.015687  0.016823)
 96:   3270.07   0.001936    9.79  0.000185  (-0.011333 -0.006642 -0.003498)
 97:   3436.99   0.006725   33.99  0.000611  ( 0.014282  0.006692  0.019023)
 98:   3490.86   0.113164  571.88  0.010116  ( 0.077647 -0.061648 -0.016934)
 99:   3532.01   0.058359  294.92  0.005156  (-0.026678 -0.060900  0.027123)
100:   3540.25   0.108282  547.21  0.009545  ( 0.043853  0.019494 -0.085098)
101:   3564.42   0.052636  266.00  0.004608  (-0.031246  0.052800  0.029055)

--------------------------
THERMOCHEMISTRY AT 298.15K
--------------------------

Temperature         ... 298.15 K
Pressure            ... 1.00 atm
Total Mass          ... 203.23 AMU

Throughout the following assumptions are being made:
  (1) The electronic state is orbitally nondegenerate
  (2) There are no thermally accessible electronically excited states
  (3) Hindered rotations indicated by low frequency modes are not
      treated as such but are treated as vibrations and this may
      cause some error
  (4) All equations used are the standard statistical mechanics
      equations for an ideal gas
  (5) All vibrations are strictly harmonic

freq.      40.59  E(vib)   ...       0.54
freq.      44.56  E(vib)   ...       0.53
freq.      67.24  E(vib)   ...       0.50
freq.      71.80  E(vib)   ...       0.50
freq.     114.36  E(vib)   ...       0.44
freq.     154.81  E(vib)   ...       0.40
freq.     172.53  E(vib)   ...       0.38
freq.     203.22  E(vib)   ...       0.35
freq.     265.78  E(vib)   ...       0.29
freq.     293.56  E(vib)   ...       0.27
freq.     352.33  E(vib)   ...       0.23
freq.     371.37  E(vib)   ...       0.21
freq.     475.32  E(vib)   ...       0.15
freq.     517.05  E(vib)   ...       0.13
freq.     635.29  E(vib)   ...       0.09
freq.     655.40  E(vib)   ...       0.08
freq.     719.45  E(vib)   ...       0.07
freq.     719.98  E(vib)   ...       0.07
freq.     734.74  E(vib)   ...       0.06
freq.     769.23  E(vib)   ...       0.06
freq.     785.56  E(vib)   ...       0.05
freq.     999.51  E(vib)   ...       0.02
freq.    1052.71  E(vib)   ...       0.02
freq.    1068.54  E(vib)   ...       0.02
freq.    1074.92  E(vib)   ...       0.02
freq.    1083.71  E(vib)   ...       0.02
freq.    1109.73  E(vib)   ...       0.02
freq.    1110.24  E(vib)   ...       0.02
freq.    1111.02  E(vib)   ...       0.01
freq.    1121.07  E(vib)   ...       0.01
freq.    1147.82  E(vib)   ...       0.01
freq.    1151.18  E(vib)   ...       0.01
freq.    1160.03  E(vib)   ...       0.01
freq.    1169.26  E(vib)   ...       0.01
freq.    1208.49  E(vib)   ...       0.01
freq.    1214.10  E(vib)   ...       0.01
freq.    1273.25  E(vib)   ...       0.01
freq.    1285.73  E(vib)   ...       0.01
freq.    1424.95  E(vib)   ...       0.00
freq.    1426.60  E(vib)   ...       0.00
freq.    1429.36  E(vib)   ...       0.00
freq.    1442.67  E(vib)   ...       0.00
freq.    1443.74  E(vib)   ...       0.00
freq.    1445.97  E(vib)   ...       0.00
freq.    1452.16  E(vib)   ...       0.00
freq.    1454.22  E(vib)   ...       0.00
freq.    1457.40  E(vib)   ...       0.00
freq.    1463.72  E(vib)   ...       0.00
freq.    1469.46  E(vib)   ...       0.00
freq.    1472.04  E(vib)   ...       0.00
freq.    1479.89  E(vib)   ...       0.00
freq.    1493.17  E(vib)   ...       0.00
freq.    1495.38  E(vib)   ...       0.00
freq.    1722.13  E(vib)   ...       0.00
freq.    1814.16  E(vib)   ...       0.00
freq.    1966.91  E(vib)   ...       0.00
freq.    2176.84  E(vib)   ...       0.00
freq.    2929.26  E(vib)   ...       0.00
freq.    3078.54  E(vib)   ...       0.00
freq.    3079.35  E(vib)   ...       0.00
freq.    3086.75  E(vib)   ...       0.00
freq.    3090.75  E(vib)   ...       0.00
freq.    3154.67  E(vib)   ...       0.00
freq.    3165.03  E(vib)   ...       0.00
freq.    3166.31  E(vib)   ...       0.00
freq.    3171.88  E(vib)   ...       0.00
freq.    3185.01  E(vib)   ...       0.00
freq.    3194.41  E(vib)   ...       0.00
freq.    3199.42  E(vib)   ...       0.00
freq.    3201.14  E(vib)   ...       0.00
freq.    3204.22  E(vib)   ...       0.00
freq.    3270.07  E(vib)   ...       0.00
freq.    3436.99  E(vib)   ...       0.00
freq.    3490.86  E(vib)   ...       0.00
freq.    3532.01  E(vib)   ...       0.00
freq.    3540.25  E(vib)   ...       0.00
freq.    3564.42  E(vib)   ...       0.00

------------
INNER ENERGY
------------

The inner energy is: U= E(el) + E(ZPE) + E(vib) + E(rot) + E(trans)
    E(el)   - is the total energy from the electronic structure calculation
              = E(kin-el) + E(nuc-el) + E(el-el) + E(nuc-nuc)
    E(ZPE)  - the the zero temperature vibrational energy from the frequency calculation
    E(vib)  - the the finite temperature correction to E(ZPE) due to population
              of excited vibrational states
    E(rot)  - is the rotational thermal energy
    E(trans)- is the translational thermal energy

Summary of contributions to the inner energy U:
Electronic energy                ...   -746.02768101 Eh
Zero point energy                ...      0.27742982 Eh     174.09 kcal/mol
Thermal vibrational correction   ...      0.00906492 Eh       5.69 kcal/mol
Thermal rotational correction    ...      0.00141627 Eh       0.89 kcal/mol
Thermal translational correction ...      0.00141627 Eh       0.89 kcal/mol
-----------------------------------------------------------------------
Total thermal energy                   -745.73835374 Eh

Summary of corrections to the electronic energy:
(perhaps to be used in another calculation)
Total thermal correction                  0.01189746 Eh       7.47 kcal/mol
Non-thermal (ZPE) correction              0.27742982 Eh     174.09 kcal/mol
-----------------------------------------------------------------------
Total correction                          0.28932728 Eh     181.56 kcal/mol

--------
ENTHALPY
--------

The enthalpy is H = U + kB*T
                kB is Boltzmann's constant
Total free energy                 ...   -745.73835374 Eh
Thermal Enthalpy correction       ...      0.00094421 Eh       0.59 kcal/mol
-----------------------------------------------------------------------
Total Enthalpy                    ...   -745.73740953 Eh

Note: Only C1 symmetry has been detected, increase convergence thresholds
      if your molecule has a higher symmetry. Symmetry factor of 1.0 is
      used for the rotational entropy correction.

Note: Rotational entropy computed according to Herzberg
Infrared and Raman Spectra, Chapter V,1, Van Nostrand Reinhold, 1945
Point Group:  C1, Symmetry Number:   1
Rotational constants in cm-1:     0.020694     0.010511     0.009007

Vibrational entropy computed according to the QRRHO of S. Grimme
Chem.Eur.J. 2012 18 9955

-------
ENTROPY
-------

The entropy contributions are T*S = T*(S(el)+S(vib)+S(rot)+S(trans))
     S(el)   - electronic entropy
     S(vib)  - vibrational entropy
     S(rot)  - rotational entropy
     S(trans)- translational entropy

                             ****ORCA TERMINATED NORMALLY****
TOTAL RUN TIME: 0 days 0 hours 26 minutes 52 seconds 462 msec
