                         Program Version 5.0.4 -  RELEASE  -
|  1> !B3LYP D3 DEF2-SVP OPT KEEPDENS
|  2>
|  3> * xyz 0 1
|  4> C         -2.19840        3.00305       -0.20666
|  5> C         -2.50179        1.55642        0.08284
|  6> O         -1.29812        0.85411       -0.22491
|  7> H         -3.31949        1.17786       -0.53711
|  8> H         -2.74629        1.38587        1.13674
|  9> C         -0.73652        3.10508        0.14798
| 10> H         -2.83435        3.69747        0.34848
| 11> H         -2.33068        3.20260       -1.27718
| 12> C         -0.24607        1.72326       -0.16280
| 13> H         -0.58903        3.30540        1.21300
| 14> H         -0.22545        3.85317       -0.46203
| 15> O          0.92223        1.40071       -0.30020
| 16> **                         ****END OF INPUT****
 Total Charge           Charge          ....    0
 Multiplicity           Mult            ....    1
 Number of Electrons    NEL             ....   46
Dispersion correction           -0.015513661
FINAL SINGLE POINT ENERGY      -306.108554395600
Dispersion correction            ... done
Dispersion correction           -0.015419835
FINAL SINGLE POINT ENERGY      -306.111902377747
Dispersion correction            ... done
Dispersion correction           -0.015379845
FINAL SINGLE POINT ENERGY      -306.112342643690
Dispersion correction            ... done
FINAL SINGLE POINT ENERGY      -306.112477554013
FINAL SINGLE POINT ENERGY      -306.112516266124
Dispersion correction            ... done
Dispersion correction           -0.015377778
FINAL SINGLE POINT ENERGY      -306.112528416565
Dispersion correction            ... done
Dispersion correction           -0.015376467
FINAL SINGLE POINT ENERGY      -306.112531263134
Dispersion correction            ... done
                    ***********************HURRAY********************

CARTESIAN COORDINATES (ANGSTROEM)
---------------------------------
  C     -2.222289    3.028596   -0.210354
  C     -2.508304    1.547918    0.076027
  O     -1.280192    0.862925   -0.197524
  H     -3.292799    1.112264   -0.558824
  H     -2.781290    1.380840    1.133432
  C     -0.735082    3.124133    0.128098
  H     -2.863971    3.702294    0.375273
  H     -2.386237    3.245748   -1.278010
  C     -0.218491    1.714620   -0.153035
  H     -0.563927    3.334495    1.198506
  H     -0.161458    3.862055   -0.448413
  O      0.910079    1.349112   -0.307027

 Multiplicity           Mult            ....    1
 Number of Electrons    NEL             ....   46
 Basis Dimension        Dim             ....  114

ORBITAL ENERGIES
----------------

  NO   OCC          E(Eh)            E(eV)
   0   2.0000     -19.171575      -521.6851
   1   2.0000     -19.113909      -520.1159
   2   2.0000     -10.307993      -280.4948
   3   2.0000     -10.255168      -279.0573
   4   2.0000     -10.210373      -277.8384
   5   2.0000     -10.208993      -277.8008
   6   2.0000      -1.090889       -29.6846
   7   2.0000      -1.010959       -27.5096
   8   2.0000      -0.802959       -21.8496
   9   2.0000      -0.727402       -19.7936
  10   2.0000      -0.626737       -17.0544
  11   2.0000      -0.557284       -15.1645
  12   2.0000      -0.522549       -14.2193
  13   2.0000      -0.501770       -13.6539
  14   2.0000      -0.452982       -12.3263
  15   2.0000      -0.440002       -11.9731
  16   2.0000      -0.423030       -11.5112
  17   2.0000      -0.407202       -11.0805
  18   2.0000      -0.381942       -10.3932
  19   2.0000      -0.357000        -9.7145
  20   2.0000      -0.352161        -9.5828
  21   2.0000      -0.297161        -8.0862
  22   2.0000      -0.268429        -7.3043
  23   0.0000       0.010169         0.2767
  24   0.0000       0.043180         1.1750
  25   0.0000       0.073118         1.9896
  26   0.0000       0.087850         2.3905
  27   0.0000       0.104572         2.8455

MULLIKEN ATOMIC CHARGES
-----------------------
   0 C :   -0.035135
   1 C :    0.211300
   2 O :   -0.300000
   3 H :    0.027102
   4 H :    0.020130
   5 C :   -0.025291
   6 H :    0.019067
   7 H :    0.028444
   8 C :    0.144861
   9 H :    0.046572
  10 H :    0.042046
  11 O :   -0.179098
Sum of atomic charges:   -0.0000000

LOEWDIN ATOMIC CHARGES
----------------------
   0 C :   -0.044345
   1 C :    0.094091
   2 O :   -0.104671
   3 H :    0.023884
   4 H :    0.016491
   5 C :   -0.063433
   6 H :    0.029999
   7 H :    0.030806
   8 C :    0.079714
   9 H :    0.046943
  10 H :    0.042621
  11 O :   -0.152100

  Mayer bond orders larger than 0.100000
B(  0-C ,  1-C ) :   1.0758 B(  0-C ,  5-C ) :   1.0820 B(  0-C ,  6-H ) :   0.9394
B(  0-C ,  7-H ) :   0.9435 B(  1-C ,  2-O ) :   0.9450 B(  1-C ,  3-H ) :   0.9569
B(  1-C ,  4-H ) :   0.9508 B(  2-O ,  8-C ) :   1.1169 B(  5-C ,  8-C ) :   0.9669
B(  5-C ,  9-H ) :   0.9269 B(  5-C , 10-H ) :   0.9392 B(  8-C , 11-O ) :   2.1938

Dispersion correction           -0.015374501
FINAL SINGLE POINT ENERGY      -306.112532637440

DIPOLE MOMENT
-------------
                                X             Y             Z
Electronic contribution:      4.25404      -3.77565      -0.73282
Nuclear contribution   :     -5.63513       4.78017       1.01678
                        -----------------------------------------
Total Dipole Moment    :     -1.38108       1.00452       0.28396
                        -----------------------------------------
Magnitude (a.u.)       :      1.73121
Magnitude (Debye)      :      4.40039

Rotational constants in cm-1:     0.242899     0.119204     0.085243
Rotational constants in MHz :  7281.918729  3573.634317  2555.522171

                             ****ORCA TERMINATED NORMALLY****
TOTAL RUN TIME: 0 days 0 hours 9 minutes 38 seconds 564 msec
