                         Program Version 5.0.4 -  RELEASE  -
|  1> !B3LYP DEF2-SVP OPT FREQ D4 SOSCF
|  2>
|  3> %geom
|  4> maxIter 1000
|  5> end
|  6>
|  7> * xyz 1 1
|  8>    C       -0.89671        1.83690       11.19755
|  9>    C       -0.39510        1.30333       12.37687
| 10>    C        0.28712        0.14397       12.34719
| 11>    C        0.49195       -0.51832       11.16076
| 12>    C        0.00000        0.00000        9.99318
| 13>    C       -0.68501        1.15844        9.99947
| 14>    H       -0.55626        1.81992       13.29480
| 15>    H        0.66993       -0.26069       13.25046
| 16>    H        1.03208       -1.43372       11.14683
| 17>    H        0.16014       -0.51691        9.07610
| 18>    H       -1.06939        1.56347        9.09609
| 19>    N       -1.56140        2.96742       11.21574
| 20>    H       -1.71829        3.46005       12.05848
| 21>    H       -1.92269        3.35892       10.38740
| 22>    N        0.00000        0.00000        0.00000
| 23>    O       -0.94223        0.65847       -0.69949
| 24>    O        0.80531        0.18898        1.02883
| 25> **                         ****END OF INPUT****
 Total Charge           Charge          ....    1
 Multiplicity           Mult            ....    1
 Number of Electrons    NEL             ....   72
Dispersion correction           -0.020810365
FINAL SINGLE POINT ENERGY      -491.696187999290
Dispersion correction            ... Starting D4
Dispersion correction           -0.020558810
FINAL SINGLE POINT ENERGY      -491.755544817562
Dispersion correction            ... Starting D4
Dispersion correction           -0.020406364
FINAL SINGLE POINT ENERGY      -491.766670697546
Dispersion correction            ... Starting D4
FINAL SINGLE POINT ENERGY      -491.771704093686
FINAL SINGLE POINT ENERGY      -491.772135897790
FINAL SINGLE POINT ENERGY      -491.772256246360
FINAL SINGLE POINT ENERGY      -491.772309216012
FINAL SINGLE POINT ENERGY      -491.772357670788
FINAL SINGLE POINT ENERGY      -491.772405640584
FINAL SINGLE POINT ENERGY      -491.772462563090
FINAL SINGLE POINT ENERGY      -491.774882061614
FINAL SINGLE POINT ENERGY      -491.774887757794
FINAL SINGLE POINT ENERGY      -491.774889492985
FINAL SINGLE POINT ENERGY      -491.774890608146
FINAL SINGLE POINT ENERGY      -491.774891616344
FINAL SINGLE POINT ENERGY      -491.774892469836
FINAL SINGLE POINT ENERGY      -491.774893165211
Dispersion correction           -0.020414979
FINAL SINGLE POINT ENERGY      -491.774893886002
Dispersion correction            ... Starting D4
Dispersion correction           -0.020414918
FINAL SINGLE POINT ENERGY      -491.774894410447
Dispersion correction            ... Starting D4
                    ***********************HURRAY********************

CARTESIAN COORDINATES (ANGSTROEM)
---------------------------------
  C     -0.875472    2.095475   12.819629
  C      0.041244    1.107666   13.292272
  C      0.354204    0.021102   12.496518
  C     -0.223407   -0.119519   11.219392
  C     -1.127401    0.850699   10.744386
  C     -1.455851    1.944816   11.523651
  H      0.487230    1.220402   14.283411
  H      1.054742   -0.732736   12.862044
  H      0.029311   -0.980778   10.597632
  H     -1.572700    0.739145    9.753686
  H     -2.157594    2.698938   11.159231
  N     -1.188899    3.158266   13.588040
  H     -0.786788    3.277673   14.511280
  H     -1.842288    3.864748   13.268217
  N      1.169341   -1.118907   -5.204917
  O      0.297350   -1.588686   -5.821762
  O      1.496429   -0.708074   -4.162449

 Multiplicity           Mult            ....    1
 Number of Electrons    NEL             ....   72
 Basis Dimension        Dim             ....  175

ORBITAL ENERGIES
----------------

  NO   OCC          E(Eh)            E(eV)
   0   2.0000     -19.417313      -528.3719
   1   2.0000     -19.417228      -528.3696
   2   2.0000     -14.738895      -401.0657
   3   2.0000     -14.502746      -394.6398
   4   2.0000     -10.381220      -282.4874
   5   2.0000     -10.322082      -280.8781
   6   2.0000     -10.321820      -280.8710
   7   2.0000     -10.321797      -280.8704
   8   2.0000     -10.317481      -280.7529
   9   2.0000     -10.317130      -280.7434
  10   2.0000      -1.447633       -39.3921
  11   2.0000      -1.317149       -35.8415
  12   2.0000      -1.069124       -29.0924
  13   2.0000      -0.963053       -26.2060
  14   2.0000      -0.870445       -23.6860
  15   2.0000      -0.850975       -23.1562
  16   2.0000      -0.794152       -21.6100
  17   2.0000      -0.743288       -20.2259
  18   2.0000      -0.738877       -20.1059
  19   2.0000      -0.736848       -20.0506
  20   2.0000      -0.733289       -19.9538
  21   2.0000      -0.719093       -19.5675
  22   2.0000      -0.663772       -18.0622
  23   2.0000      -0.659198       -17.9377
  24   2.0000      -0.611650       -16.6438
  25   2.0000      -0.566996       -15.4288
  26   2.0000      -0.558089       -15.1864
  27   2.0000      -0.549996       -14.9662
  28   2.0000      -0.539325       -14.6758
  29   2.0000      -0.532649       -14.4941
  30   2.0000      -0.528465       -14.3803
  31   2.0000      -0.489949       -13.3322
  32   2.0000      -0.471217       -12.8225
  33   2.0000      -0.450375       -12.2553
  34   2.0000      -0.385524       -10.4907
  35   2.0000      -0.325047        -8.8450
  36   0.0000      -0.319121        -8.6837
  37   0.0000      -0.223715        -6.0876
  38   0.0000      -0.131387        -3.5752
  39   0.0000      -0.120706        -3.2846
  40   0.0000      -0.066068        -1.7978

MULLIKEN ATOMIC CHARGES
-----------------------
   0 C :    0.048814
   1 C :    0.020810
   2 C :    0.026354
   3 C :    0.055791
   4 C :    0.025674
   5 C :    0.020858
   6 H :    0.007299
   7 H :    0.030384
   8 H :    0.032997
   9 H :    0.027993
  10 H :    0.005748
  11 N :    0.013174
  12 H :    0.153537
  13 H :    0.153038
  14 N :    0.378062
  15 O :    0.001711
  16 O :   -0.002244
Sum of atomic charges:    1.0000000

LOEWDIN ATOMIC CHARGES
----------------------
   0 C :    0.062644
   1 C :   -0.015928
   2 C :    0.011644
   3 C :    0.035157
   4 C :    0.010474
   5 C :   -0.016823
   6 H :    0.042112
   7 H :    0.049064
   8 H :    0.047204
   9 H :    0.048007
  10 H :    0.041448
  11 N :    0.102426
  12 H :    0.102662
  13 H :    0.102381
  14 N :    0.288723
  15 O :    0.046274
  16 O :    0.042532

  Mayer bond orders larger than 0.100000
B(  0-C ,  1-C ) :   1.2051 B(  0-C ,  5-C ) :   1.2052 B(  0-C , 11-N ) :   1.3685
B(  1-C ,  2-C ) :   1.4691 B(  1-C ,  6-H ) :   0.9881 B(  2-C ,  3-C ) :   1.3055
B(  2-C ,  7-H ) :   0.9815 B(  3-C ,  4-C ) :   1.3064 B(  3-C ,  8-H ) :   0.9872
B(  3-C , 14-N ) :   0.1048 B(  4-C ,  5-C ) :   1.4682 B(  4-C ,  9-H ) :   0.9815
B(  5-C , 10-H ) :   0.9880 B( 11-N , 12-H ) :   0.9346 B( 11-N , 13-H ) :   0.9347
B( 11-N , 14-N ) :   0.1109 B( 14-N , 15-O ) :   1.7496 B( 14-N , 16-O ) :   1.7462
B( 15-O , 16-O ) :   0.3565

Dispersion correction           -0.020414961
FINAL SINGLE POINT ENERGY      -491.774894415891

DIPOLE MOMENT
-------------
                                X             Y             Z
Electronic contribution:      3.67832      -5.36400     -38.71149
Nuclear contribution   :     -3.71156       5.98093      37.73617
                        -----------------------------------------
Total Dipole Moment    :     -0.03324       0.61693      -0.97531
                        -----------------------------------------
Magnitude (a.u.)       :      1.15453
Magnitude (Debye)      :      2.93458

Dispersion correction in the Hessian             ... Starting D4

VIBRATIONAL FREQUENCIES
-----------------------

Scaling factor for frequencies =  1.000000000  (already applied!)

   0:         0.00 cm**-1
   1:         0.00 cm**-1
   2:         0.00 cm**-1
   3:         0.00 cm**-1
   4:         0.00 cm**-1
   5:         0.00 cm**-1
   6:       -15.67 cm**-1 ***imaginary mode***
   7:        -7.42 cm**-1 ***imaginary mode***
   8:         2.87 cm**-1
   9:         3.49 cm**-1
  10:         9.27 cm**-1
  11:        24.04 cm**-1
  12:       202.20 cm**-1
  13:       387.90 cm**-1
  14:       394.91 cm**-1
  15:       453.55 cm**-1
  16:       505.18 cm**-1
  17:       513.64 cm**-1
  18:       531.95 cm**-1
  19:       611.77 cm**-1
  20:       634.21 cm**-1
  21:       671.82 cm**-1
  22:       799.86 cm**-1
  23:       819.33 cm**-1
  24:       836.26 cm**-1
  25:       928.02 cm**-1
  26:       995.74 cm**-1
  27:      1004.62 cm**-1
  28:      1022.67 cm**-1
  29:      1027.32 cm**-1
  30:      1030.48 cm**-1
  31:      1122.43 cm**-1
  32:      1173.21 cm**-1
  33:      1192.05 cm**-1
  34:      1350.42 cm**-1
  35:      1368.42 cm**-1
  36:      1385.79 cm**-1
  37:      1397.41 cm**-1
  38:      1500.50 cm**-1
  39:      1523.80 cm**-1
  40:      1566.31 cm**-1
  41:      1630.85 cm**-1
  42:      1666.42 cm**-1
  43:      2033.64 cm**-1
  44:      3189.77 cm**-1
  45:      3190.79 cm**-1
  46:      3203.17 cm**-1
  47:      3209.81 cm**-1
  48:      3218.40 cm**-1
  49:      3567.81 cm**-1
  50:      3689.68 cm**-1

IR SPECTRUM
-----------

 Mode   freq       eps      Int      T**2         TX        TY        TZ
       cm**-1   L/(mol*cm) km/mol    a.u.
----------------------------------------------------------------------------
  8:      2.87   0.000000    0.00  0.000000  ( 0.000000  0.000000  0.000000)
  9:      3.49   0.000000    0.00  0.000000  ( 0.000000  0.000000  0.000000)
 10:      9.27   0.000021    0.11  0.000712  ( 0.018350 -0.006042  0.018413)
 11:     24.04   0.000374    1.89  0.004857  ( 0.019326 -0.064690  0.017275)
 12:    202.20   0.001352    6.83  0.002086  ( 0.034793  0.023996 -0.017312)
 13:    387.90   0.000546    2.76  0.000439  ( 0.013179 -0.007491  0.014467)
 14:    394.91   0.000000    0.00  0.000000  ( 0.000270 -0.000096 -0.000541)
 15:    453.55   0.033152  167.54  0.022810  (-0.116281 -0.083106  0.048807)
 16:    505.18   0.001225    6.19  0.000757  ( 0.021395  0.016520 -0.005091)
 17:    513.64   0.000013    0.06  0.000008  ( 0.000646 -0.000588 -0.002637)
 18:    531.95   0.128595  649.86  0.075439  ( 0.023569 -0.035973 -0.271274)
 19:    611.77   0.000013    0.07  0.000007  ( 0.002167 -0.001446  0.000238)
 20:    634.21   1.970459  9957.89  0.969559  ( 0.075818 -0.148156 -0.970495)
 21:    671.82   0.007417   37.48  0.003445  (-0.044164 -0.029400  0.025113)
 22:    799.86   0.006823   34.48  0.002662  (-0.039364 -0.026900  0.019716)
 23:    819.33   0.000002    0.01  0.000001  (-0.000788 -0.000409  0.000256)
 24:    836.26   0.004764   24.08  0.001778  (-0.003207  0.000166  0.042041)
 25:    928.02   0.000999    5.05  0.000336  (-0.014030 -0.009558  0.006902)
 26:    995.74   0.020374  102.96  0.006385  (-0.009637  0.017477  0.077375)
 27:   1004.62   0.000000    0.00  0.000000  ( 0.000083 -0.000093 -0.000184)
 28:   1022.67   0.000009    0.04  0.000003  (-0.001023  0.000555 -0.001129)
 29:   1027.32   0.000005    0.03  0.000002  ( 0.001036  0.000659 -0.000235)
 30:   1030.48   0.003255   16.45  0.000986  ( 0.002130 -0.000161 -0.031323)
 31:   1122.43   0.001734    8.76  0.000482  ( 0.014085 -0.008078  0.014782)
 32:   1173.21   0.000009    0.05  0.000002  (-0.001282  0.000882  0.000103)
 33:   1192.05   0.067470  340.97  0.017663  (-0.014986  0.026338  0.129401)
 34:   1350.42   0.000012    0.06  0.000003  ( 0.001111 -0.000823 -0.000975)
 35:   1368.42   2.224351  11240.96  0.507255  ( 0.071056 -0.107224 -0.700507)
 36:   1385.79   0.580981  2936.04  0.130830  ( 0.034766 -0.049771 -0.356572)
 37:   1397.41   0.000020    0.10  0.000004  (-0.001026  0.000833  0.001623)
 38:   1500.50   0.001517    7.67  0.000315  ( 0.010855 -0.006262  0.012588)
 39:   1523.80   0.034099  172.32  0.006983  (-0.015492  0.044600  0.068950)
 40:   1566.31   0.000285    1.44  0.000057  (-0.004748  0.002746 -0.005174)
 41:   1630.85   0.029007  146.59  0.005550  (-0.016730  0.054317  0.048168)
 42:   1666.42   0.223366  1128.80  0.041829  ( 0.027384 -0.058412 -0.194080)
 43:   2033.64   0.065860  332.83  0.010106  ( 0.055415  0.040194  0.073620)
 44:   3189.77   0.001658    8.38  0.000162  (-0.002291  0.006221  0.010873)
 45:   3190.79   0.000001    0.00  0.000000  (-0.000153 -0.000028 -0.000232)
 46:   3203.17   0.003027   15.29  0.000295  (-0.002162  0.003954  0.016569)
 47:   3209.81   0.000010    0.05  0.000001  (-0.000835  0.000427 -0.000229)
 48:   3218.40   0.001280    6.47  0.000124  (-0.001266  0.001354  0.010986)
 49:   3567.81   0.305633  1544.54  0.026733  (-0.024777  0.060585  0.149827)
 50:   3689.68   0.014434   72.94  0.001221  ( 0.021561 -0.012006  0.024734)

--------------------------
THERMOCHEMISTRY AT 298.15K
--------------------------

Temperature         ... 298.15 K
Pressure            ... 1.00 atm
Total Mass          ... 139.13 AMU

Throughout the following assumptions are being made:
  (1) The electronic state is orbitally nondegenerate
  (2) There are no thermally accessible electronically excited states
  (3) Hindered rotations indicated by low frequency modes are not
      treated as such but are treated as vibrations and this may
      cause some error
  (4) All equations used are the standard statistical mechanics
      equations for an ideal gas
  (5) All vibrations are strictly harmonic

freq.       2.87  E(vib)   ...       0.59
freq.       3.49  E(vib)   ...       0.59
freq.       9.27  E(vib)   ...       0.58
freq.      24.04  E(vib)   ...       0.56
freq.     202.20  E(vib)   ...       0.35
freq.     387.90  E(vib)   ...       0.20
freq.     394.91  E(vib)   ...       0.20
freq.     453.55  E(vib)   ...       0.16
freq.     505.18  E(vib)   ...       0.14
freq.     513.64  E(vib)   ...       0.13
freq.     531.95  E(vib)   ...       0.13
freq.     611.77  E(vib)   ...       0.10
freq.     634.21  E(vib)   ...       0.09
freq.     671.82  E(vib)   ...       0.08
freq.     799.86  E(vib)   ...       0.05
freq.     819.33  E(vib)   ...       0.05
freq.     836.26  E(vib)   ...       0.04
freq.     928.02  E(vib)   ...       0.03
freq.     995.74  E(vib)   ...       0.02
freq.    1004.62  E(vib)   ...       0.02
freq.    1022.67  E(vib)   ...       0.02
freq.    1027.32  E(vib)   ...       0.02
freq.    1030.48  E(vib)   ...       0.02
freq.    1122.43  E(vib)   ...       0.01
freq.    1173.21  E(vib)   ...       0.01
freq.    1192.05  E(vib)   ...       0.01
freq.    1350.42  E(vib)   ...       0.01
freq.    1368.42  E(vib)   ...       0.01
freq.    1385.79  E(vib)   ...       0.00
freq.    1397.41  E(vib)   ...       0.00
freq.    1500.50  E(vib)   ...       0.00
freq.    1523.80  E(vib)   ...       0.00
freq.    1566.31  E(vib)   ...       0.00
freq.    1630.85  E(vib)   ...       0.00
freq.    1666.42  E(vib)   ...       0.00
freq.    2033.64  E(vib)   ...       0.00
freq.    3189.77  E(vib)   ...       0.00
freq.    3190.79  E(vib)   ...       0.00
freq.    3203.17  E(vib)   ...       0.00
freq.    3209.81  E(vib)   ...       0.00
freq.    3218.40  E(vib)   ...       0.00
freq.    3567.81  E(vib)   ...       0.00
freq.    3689.68  E(vib)   ...       0.00

------------
INNER ENERGY
------------

The inner energy is: U= E(el) + E(ZPE) + E(vib) + E(rot) + E(trans)
    E(el)   - is the total energy from the electronic structure calculation
              = E(kin-el) + E(nuc-el) + E(el-el) + E(nuc-nuc)
    E(ZPE)  - the the zero temperature vibrational energy from the frequency calculation
    E(vib)  - the the finite temperature correction to E(ZPE) due to population
              of excited vibrational states
    E(rot)  - is the rotational thermal energy
    E(trans)- is the translational thermal energy

Summary of contributions to the inner energy U:
Electronic energy                ...   -491.77489442 Eh
Zero point energy                ...      0.12664740 Eh      79.47 kcal/mol
Thermal vibrational correction   ...      0.00675035 Eh       4.24 kcal/mol
Thermal rotational correction    ...      0.00141627 Eh       0.89 kcal/mol
Thermal translational correction ...      0.00141627 Eh       0.89 kcal/mol
-----------------------------------------------------------------------
Total thermal energy                   -491.63866412 Eh

Summary of corrections to the electronic energy:
(perhaps to be used in another calculation)
Total thermal correction                  0.00958289 Eh       6.01 kcal/mol
Non-thermal (ZPE) correction              0.12664740 Eh      79.47 kcal/mol
-----------------------------------------------------------------------
Total correction                          0.13623030 Eh      85.49 kcal/mol

--------
ENTHALPY
--------

The enthalpy is H = U + kB*T
                kB is Boltzmann's constant
Total free energy                 ...   -491.63866412 Eh
Thermal Enthalpy correction       ...      0.00094421 Eh       0.59 kcal/mol
-----------------------------------------------------------------------
Total Enthalpy                    ...   -491.63771991 Eh

Note: Only C1 symmetry has been detected, increase convergence thresholds
      if your molecule has a higher symmetry. Symmetry factor of 1.0 is
      used for the rotational entropy correction.

Note: Rotational entropy computed according to Herzberg
Infrared and Raman Spectra, Chapter V,1, Van Nostrand Reinhold, 1945
Point Group:  C1, Symmetry Number:   1
Rotational constants in cm-1:     0.095735     0.001736     0.001718

Vibrational entropy computed according to the QRRHO of S. Grimme
Chem.Eur.J. 2012 18 9955

-------
ENTROPY
-------

The entropy contributions are T*S = T*(S(el)+S(vib)+S(rot)+S(trans))
     S(el)   - electronic entropy
     S(vib)  - vibrational entropy
     S(rot)  - rotational entropy
     S(trans)- translational entropy
The entropies will be listed as multiplied by the temperature to get
units of energy

Electronic entropy                ...      0.00000000 Eh      0.00 kcal/mol
Vibrational entropy               ...      0.01492002 Eh      9.36 kcal/mol
Rotational entropy                ...      0.01662480 Eh     10.43 kcal/mol
Translational entropy             ...      0.01933899 Eh     12.14 kcal/mol
-----------------------------------------------------------------------
Final entropy term                ...      0.05088381 Eh     31.93 kcal/mol

In case the symmetry of your molecule has not been determined correctly
or in case you have a reason to use a different symmetry number we print
out the resulting rotational entropy values for sn=1,12 :
 --------------------------------------------------------
|  sn= 1 | S(rot)=       0.01662480 Eh     10.43 kcal/mol|
|  sn= 2 | S(rot)=       0.01597035 Eh     10.02 kcal/mol|
|  sn= 3 | S(rot)=       0.01558751 Eh      9.78 kcal/mol|
|  sn= 4 | S(rot)=       0.01531589 Eh      9.61 kcal/mol|
|  sn= 5 | S(rot)=       0.01510520 Eh      9.48 kcal/mol|
|  sn= 6 | S(rot)=       0.01493306 Eh      9.37 kcal/mol|
|  sn= 7 | S(rot)=       0.01478751 Eh      9.28 kcal/mol|
|  sn= 8 | S(rot)=       0.01466143 Eh      9.20 kcal/mol|
|  sn= 9 | S(rot)=       0.01455022 Eh      9.13 kcal/mol|
|  sn=10 | S(rot)=       0.01445075 Eh      9.07 kcal/mol|
|  sn=11 | S(rot)=       0.01436076 Eh      9.01 kcal/mol|
|  sn=12 | S(rot)=       0.01427860 Eh      8.96 kcal/mol|
 --------------------------------------------------------

-------------------
GIBBS FREE ENERGY
-------------------

The Gibbs free energy is G = H - T*S

                             ****ORCA TERMINATED NORMALLY****
TOTAL RUN TIME: 0 days 8 hours 11 minutes 39 seconds 252 msec
