                         Program Version 5.0.4 -  RELEASE  -
|  1> !B3LYP DEF2-TZVP
|  2> %TDDFT
|  3>    NROOTS   60
|  4> END
|  5> * xyz 0 1
|  6>   C   4.03468957538736      1.56442831999463      0.14605264887596
|  7>   C   4.40467915375032      0.34230380287928     -0.31206515762839
|  8>   C   3.21191832427875     -0.46430347705779     -0.35053853064268
|  9>   C   2.61398834910173      1.50807200215447      0.37736242107912
| 10>   N   2.13665543187650      0.26628085990779      0.06833683420085
| 11>   C   1.85444004691544      2.57174712540732      0.83013997532915
| 12>   C   0.48286348614281      2.55519734050404      1.01413786409784
| 13>   N   -0.33973122532128      1.48419930668780      0.80731453303736
| 14>   C   -1.60875551090310      1.91830492016743      1.07486105180944
| 15>   C   -0.28881119968833      3.69762484572997      1.42879360180365
| 16>   C   -1.58719639358901      3.30416763665150      1.45869576758073
| 17>   C   -2.74957569559983      1.13881951796548      1.02655746905031
| 18>   C   -2.76743336055386     -0.21034315757653      0.72538510111885
| 19>   N   -1.67131691471211     -0.96631836512873      0.41261183682505
| 20>   C   -3.54805270162800     -2.29495016658771      0.44522528429897
| 21>   C   -3.94754275034497     -1.03236863918222      0.74143959636684
| 22>   C   0.00556097213477     -3.30275384342058     -0.38295718360802
| 23>   N   0.80231773779736     -2.19542844534406     -0.31753369640902
| 24>   C   2.05423981698959     -2.60138785279481     -0.68151125860914
| 25>   C   2.04856645605033     -4.00853072424638     -0.98975209338922
| 26>   C   0.77873602243214     -4.44535118498249     -0.79756000721999
| 27>   C   3.18089782240954     -1.79854962278788     -0.71596612928469
| 28>   C   -1.35154437920995     -3.33508931356301     -0.11703073493290
| 29>   C   -2.12452270491662     -2.24278036262104      0.23574143663109
| 30>   H   4.64876948683338      2.43598914067250      0.31269487037219
| 31>   H   5.38699945889793     -0.00260706405039     -0.59592013249149
| 32>   H   2.37097262637494      3.50009117946761      1.03568492863093
| 33>   H   0.12670873123358      4.66787101811008      1.65348741950424
| 34>   H   -2.46069424556025      3.88180445142854      1.71879202052702
| 35>   H   -3.69220104539999      1.61305317269657      1.26508181249307
| 36>   H   -4.14645277678395     -3.18910421468592      0.36255974671932
| 37>   H   -4.94158610546113     -0.67299702549120      0.95834763925967
| 38>   H   2.91436087792160     -4.57018723197257     -1.30510747200303
| 39>   H   0.38128982484580     -5.44035967591480     -0.92596877228316
| 40>   H   4.11190143313810     -2.25562307850253     -1.02399328513344
| 41>   H   -1.85503622767641     -4.28789122183237     -0.21473394791366
| 42>   Fe  0.20930359086404     -0.33437605283525      0.20354532321545
| 43>   N   1.87430167130891      0.57237120319756      6.49609755588874
| 44>   C   0.43261910824070      0.37389342708538      6.48035413015368
| 45>   C   -0.15233387571031      0.39767139523524      7.88048177825678
| 46>   O   0.66963429455881     -0.12692954907271      8.80194348571061
| 47>   O   -1.26427658718715      0.79493438350342      8.13942623220865
| 48>   C   -0.06272844014669     -0.93409073867043      5.79250145943780
| 49>   H   -1.15152491242319     -0.97232696559841      5.85324076707072
| 50>   H   0.33147798281949     -1.79317780493349      6.34207575456983
| 51>   C   0.34781305145789     -1.01194164798270      4.36637958453564
| 52>   N   1.53910836608377     -1.56870719155667      3.94873901673141
| 53>   C   1.63000262556769     -1.44080399701433      2.61269140458880
| 54>   H   2.46221447193251     -1.80014161499478      2.03455961917359
| 55>   N   0.56199449693739     -0.82428686272080      2.14365783697455
| 56>   C   -0.24533043408574     -0.55214172955910      3.22458400360494
| 57>   H   -1.19072640081023     -0.05199289173542      3.11780461152661
| 58>   H   2.22451235139260     -2.01405408284603      4.53963883562323
| 59>   H   2.21749006759623      0.68909562166987      5.54955546250004
| 60>   H   2.35025305982047     -0.22889905214106      6.89723633832271
| 61>   H   -0.01933114857670      1.21470815154761      5.95354495735044
| 62>   H   0.21825118225968     -0.11749408723074      9.66355194058207
| 63>   O   -1.03812424035781      0.67346814996495     -1.93061744931116
| 64>   O   -0.01565267870556      0.05381196400587     -1.48893810677811
| 65> **                         ****END OF INPUT****

CARTESIAN COORDINATES (ANGSTROEM)
---------------------------------
  C      4.034690    1.564428    0.146053
  C      4.404679    0.342304   -0.312065
  C      3.211918   -0.464303   -0.350539
  C      2.613988    1.508072    0.377362
  N      2.136655    0.266281    0.068337
  C      1.854440    2.571747    0.830140
  C      0.482863    2.555197    1.014138
  N     -0.339731    1.484199    0.807315
  C     -1.608756    1.918305    1.074861
  C     -0.288811    3.697625    1.428794
  C     -1.587196    3.304168    1.458696
  C     -2.749576    1.138820    1.026557
  C     -2.767433   -0.210343    0.725385
  N     -1.671317   -0.966318    0.412612
  C     -3.548053   -2.294950    0.445225
  C     -3.947543   -1.032369    0.741440
  C      0.005561   -3.302754   -0.382957
  N      0.802318   -2.195428   -0.317534
  C      2.054240   -2.601388   -0.681511
  C      2.048566   -4.008531   -0.989752
  C      0.778736   -4.445351   -0.797560
  C      3.180898   -1.798550   -0.715966
  C     -1.351544   -3.335089   -0.117031
  C     -2.124523   -2.242780    0.235741
  H      4.648769    2.435989    0.312695
  H      5.386999   -0.002607   -0.595920
  H      2.370973    3.500091    1.035685
  H      0.126709    4.667871    1.653487
  H     -2.460694    3.881804    1.718792
  H     -3.692201    1.613053    1.265082
  H     -4.146453   -3.189104    0.362560
  H     -4.941586   -0.672997    0.958348
  H      2.914361   -4.570187   -1.305107
  H      0.381290   -5.440360   -0.925969
  H      4.111901   -2.255623   -1.023993
  H     -1.855036   -4.287891   -0.214734
  Fe     0.209304   -0.334376    0.203545
  N      1.874302    0.572371    6.496098
  C      0.432619    0.373893    6.480354
  C     -0.152334    0.397671    7.880482
  O      0.669634   -0.126930    8.801943
  O     -1.264277    0.794934    8.139426
  C     -0.062728   -0.934091    5.792501
  H     -1.151525   -0.972327    5.853241
  H      0.331478   -1.793178    6.342076
  C      0.347813   -1.011942    4.366380
  N      1.539108   -1.568707    3.948739
  C      1.630003   -1.440804    2.612691
  H      2.462214   -1.800142    2.034560
  N      0.561994   -0.824287    2.143658
  C     -0.245330   -0.552142    3.224584
  H     -1.190726   -0.051993    3.117805
  H      2.224512   -2.014054    4.539639
  H      2.217490    0.689096    5.549555
  H      2.350253   -0.228899    6.897236
  H     -0.019331    1.214708    5.953545
  H      0.218251   -0.117494    9.663552
  O     -1.038124    0.673468   -1.930617
  O     -0.015653    0.053812   -1.488938

 Total Charge           Charge          ....    0
 Multiplicity           Mult            ....    1
 Number of Electrons    NEL             ....  284
 Basis Dimension        Dim             .... 1318

ORBITAL ENERGIES
----------------

  NO   OCC          E(Eh)            E(eV)
   0   2.0000    -256.075406     -6968.1661
   1   2.0000     -30.028400      -817.1143
   2   2.0000     -25.894910      -704.6363
   3   2.0000     -25.891760      -704.5506
   4   2.0000     -25.881781      -704.2791
   5   2.0000     -19.222875      -523.0810
   6   2.0000     -19.193279      -522.2757
   7   2.0000     -19.159594      -521.3591
   8   2.0000     -19.128649      -520.5170
   9   2.0000     -14.400735      -391.8639
  10   2.0000     -14.343222      -390.2989
  11   2.0000     -14.321301      -389.7024
  12   2.0000     -14.310933      -389.4203
  13   2.0000     -14.310831      -389.4175
  14   2.0000     -14.310770      -389.4159
  15   2.0000     -14.310736      -389.4149
  16   2.0000     -10.318273      -280.7745
  17   2.0000     -10.252468      -278.9838
  18   2.0000     -10.237194      -278.5682
  19   2.0000     -10.229845      -278.3682
  20   2.0000     -10.210772      -277.8492
  21   2.0000     -10.205840      -277.7150
  22   2.0000     -10.199562      -277.5442
  23   2.0000     -10.199447      -277.5411
  24   2.0000     -10.198816      -277.5239
  25   2.0000     -10.198809      -277.5237
  26   2.0000     -10.198771      -277.5227
  27   2.0000     -10.198605      -277.5182
  28   2.0000     -10.198539      -277.5163
  29   2.0000     -10.198388      -277.5122
  30   2.0000     -10.174071      -276.8505
  31   2.0000     -10.173058      -276.8230
  32   2.0000     -10.172815      -276.8164
  33   2.0000     -10.172488      -276.8075
  34   2.0000     -10.168320      -276.6941
  35   2.0000     -10.167960      -276.6843
  36   2.0000     -10.167543      -276.6729
  37   2.0000     -10.167187      -276.6632
  38   2.0000     -10.167157      -276.6624
  39   2.0000     -10.167079      -276.6603
  40   2.0000     -10.166255      -276.6379
  41   2.0000     -10.166188      -276.6360
  42   2.0000      -3.435273       -93.4785
  43   2.0000      -2.215696       -60.2921
  44   2.0000      -2.207742       -60.0757
  45   2.0000      -2.192473       -59.6602
  46   2.0000      -1.158469       -31.5235
  47   2.0000      -1.128301       -30.7026
  48   2.0000      -1.052837       -28.6492
  49   2.0000      -1.034639       -28.1539
  50   2.0000      -0.962817       -26.1996
  51   2.0000      -0.953360       -25.9422
  52   2.0000      -0.952860       -25.9286
  53   2.0000      -0.943447       -25.6725
  54   2.0000      -0.922111       -25.0919
  55   2.0000      -0.906770       -24.6745
  56   2.0000      -0.814311       -22.1585
  57   2.0000      -0.813408       -22.1340
  58   2.0000      -0.787536       -21.4299
  59   2.0000      -0.786436       -21.4000
  60   2.0000      -0.772976       -21.0337
  61   2.0000      -0.764808       -20.8115
  62   2.0000      -0.763003       -20.7624
  63   2.0000      -0.762000       -20.7351
  64   2.0000      -0.759770       -20.6744
  65   2.0000      -0.755449       -20.5568
  66   2.0000      -0.737831       -20.0774
  67   2.0000      -0.711031       -19.3481
  68   2.0000      -0.697903       -18.9909
  69   2.0000      -0.651340       -17.7239
  70   2.0000      -0.650401       -17.6983
  71   2.0000      -0.650283       -17.6951
  72   2.0000      -0.631603       -17.1868
  73   2.0000      -0.618349       -16.8261
  74   2.0000      -0.592917       -16.1341
  75   2.0000      -0.573237       -15.5986
  76   2.0000      -0.572452       -15.5772
  77   2.0000      -0.569169       -15.4879
  78   2.0000      -0.568345       -15.4654
  79   2.0000      -0.566915       -15.4265
  80   2.0000      -0.544369       -14.8130
  81   2.0000      -0.538842       -14.6626
  82   2.0000      -0.530853       -14.4452
  83   2.0000      -0.519251       -14.1295
  84   2.0000      -0.519006       -14.1229
  85   2.0000      -0.510570       -13.8933
  86   2.0000      -0.510180       -13.8827
  87   2.0000      -0.493547       -13.4301
  88   2.0000      -0.492904       -13.4126
  89   2.0000      -0.492710       -13.4073
  90   2.0000      -0.490107       -13.3365
  91   2.0000      -0.481900       -13.1132
  92   2.0000      -0.480528       -13.0758
  93   2.0000      -0.471364       -12.8265
  94   2.0000      -0.452486       -12.3128
  95   2.0000      -0.449387       -12.2284
  96   2.0000      -0.447769       -12.1844
  97   2.0000      -0.446027       -12.1370
  98   2.0000      -0.444536       -12.0964
  99   2.0000      -0.437740       -11.9115
 100   2.0000      -0.433442       -11.7946
 101   2.0000      -0.430876       -11.7247
 102   2.0000      -0.421750       -11.4764
 103   2.0000      -0.421388       -11.4665
 104   2.0000      -0.420944       -11.4545
 105   2.0000      -0.418654       -11.3921
 106   2.0000      -0.407531       -11.0895
 107   2.0000      -0.406834       -11.0705
 108   2.0000      -0.405983       -11.0474
 109   2.0000      -0.403166       -10.9707
 110   2.0000      -0.392068       -10.6687
 111   2.0000      -0.390399       -10.6233
 112   2.0000      -0.390193       -10.6177
 113   2.0000      -0.388934       -10.5834
 114   2.0000      -0.386460       -10.5161
 115   2.0000      -0.376745       -10.2517
 116   2.0000      -0.375298       -10.2124
 117   2.0000      -0.369929       -10.0663
 118   2.0000      -0.369671       -10.0593
 119   2.0000      -0.360420        -9.8075
 120   2.0000      -0.353645        -9.6232
 121   2.0000      -0.342067        -9.3081
 122   2.0000      -0.332518        -9.0483
 123   2.0000      -0.331279        -9.0146
 124   2.0000      -0.323967        -8.8156
 125   2.0000      -0.310722        -8.4552
 126   2.0000      -0.303127        -8.2485
 127   2.0000      -0.302168        -8.2224
 128   2.0000      -0.280879        -7.6431
 129   2.0000      -0.280292        -7.6271
 130   2.0000      -0.275841        -7.5060
 131   2.0000      -0.268546        -7.3075
 132   2.0000      -0.260806        -7.0969
 133   2.0000      -0.254904        -6.9363
 134   2.0000      -0.251204        -6.8356
 135   2.0000      -0.243782        -6.6336
 136   2.0000      -0.239828        -6.5261
 137   2.0000      -0.222775        -6.0620
 138   2.0000      -0.216435        -5.8895
 139   2.0000      -0.211304        -5.7499
 140   2.0000      -0.193847        -5.2749
 141   2.0000      -0.190636        -5.1875
 142   0.0000      -0.113063        -3.0766
 143   0.0000      -0.079432        -2.1615
 144   0.0000      -0.078043        -2.1237
 145   0.0000      -0.022467        -0.6114
 146   0.0000      -0.021440        -0.5834

MULLIKEN ATOMIC CHARGES
-----------------------
   0 C :   -0.197856
   1 C :   -0.193936
   2 C :    0.221649
   3 C :    0.228301
   4 N :   -0.037425
   5 C :   -0.306949
   6 C :    0.224650
   7 N :   -0.040450
   8 C :    0.262579
   9 C :   -0.192534
  10 C :   -0.190068
  11 C :   -0.379817
  12 C :    0.265244
  13 N :   -0.043279
  14 C :   -0.191416
  15 C :   -0.189523
  16 C :    0.225774
  17 N :   -0.033498
  18 C :    0.225208
  19 C :   -0.195204
  20 C :   -0.196496
  21 C :   -0.355621
  22 C :   -0.299858
  23 C :    0.222163
  24 H :    0.105513
  25 H :    0.104735
  26 H :    0.101135
  27 H :    0.106257
  28 H :    0.107300
  29 H :    0.095766
  30 H :    0.105720
  31 H :    0.106649
  32 H :    0.104456
  33 H :    0.105032
  34 H :    0.095314
  35 H :    0.100399
  36 Fe:   -0.209395
  37 N :   -0.476020
  38 C :    0.097957
  39 C :    0.283088
  40 O :   -0.379365
  41 O :   -0.308241
  42 C :   -0.373308
  43 H :    0.137160
  44 H :    0.128322
  45 C :    0.216978
  46 N :   -0.270305
  47 C :    0.049506
  48 H :    0.189578
  49 N :   -0.023743
  50 C :   -0.176492
  51 H :    0.173843
  52 H :    0.220029
  53 H :    0.216969
  54 H :    0.202106
  55 H :    0.119848
  56 H :    0.324704
  57 O :   -0.221848
  58 O :    0.008714
Sum of atomic charges:    0.0000000

LOEWDIN ATOMIC CHARGES
----------------------
   0 C :   -0.113923
   1 C :   -0.116760
   2 C :   -0.206723
   3 C :   -0.197075
   4 N :    0.236717
   5 C :   -0.087553
   6 C :   -0.193327
   7 N :    0.239232
   8 C :   -0.197404
   9 C :   -0.109672
  10 C :   -0.110364
  11 C :   -0.089078
  12 C :   -0.197180
  13 N :    0.239660
  14 C :   -0.109084
  15 C :   -0.110404
  16 C :   -0.195313
  17 N :    0.237286
  18 C :   -0.205659
  19 C :   -0.116435
  20 C :   -0.113127
  21 C :   -0.100766
  22 C :   -0.085536
  23 C :   -0.192051
  24 H :    0.137484
  25 H :    0.137133
  26 H :    0.156637
  27 H :    0.137923
  28 H :    0.138345
  29 H :    0.156749
  30 H :    0.137708
  31 H :    0.138116
  32 H :    0.137069
  33 H :    0.137437
  34 H :    0.155728
  35 H :    0.156562
  36 Fe:   -0.189205
  37 N :   -0.115623
  38 C :   -0.287982
  39 C :   -0.485899
  40 O :    0.110370
  41 O :    0.101143
  42 C :   -0.200586
  43 H :    0.161494
  44 H :    0.144829
  45 C :   -0.228538
  46 N :    0.213741
  47 C :   -0.229758
  48 H :    0.148818
  49 N :    0.202819
  50 C :   -0.163439
  51 H :    0.151691
  52 H :    0.191842
  53 H :    0.151413
  54 H :    0.148069
  55 H :    0.165529
  56 H :    0.199969
  57 O :   -0.110411
  58 O :    0.087361

  Mayer bond orders larger than 0.100000
B(  0-C ,  1-C ) :   1.6351 B(  0-C ,  3-C ) :   1.1051 B(  0-C , 24-H ) :   0.9933
B(  1-C ,  2-C ) :   1.1075 B(  1-C , 25-H ) :   0.9950 B(  2-C ,  4-N ) :   1.2431
B(  2-C , 21-C ) :   1.2758 B(  3-C ,  4-N ) :   1.2525 B(  3-C ,  5-C ) :   1.3017
B(  4-N , 36-Fe) :   0.6251 B(  5-C ,  6-C ) :   1.2990 B(  5-C , 26-H ) :   0.9961
B(  6-C ,  7-N ) :   1.2489 B(  6-C ,  9-C ) :   1.1101 B(  7-N ,  8-C ) :   1.2112
B(  7-N , 36-Fe) :   0.6799 B(  8-C , 10-C ) :   1.1096 B(  8-C , 11-C ) :   1.2763
B(  9-C , 10-C ) :   1.6324 B(  9-C , 27-H ) :   0.9927 B( 10-C , 28-H ) :   0.9928
B( 11-C , 12-C ) :   1.2764 B( 11-C , 29-H ) :   1.0129 B( 12-C , 13-N ) :   1.2099
B( 12-C , 15-C ) :   1.1092 B( 13-N , 23-C ) :   1.2505 B( 13-N , 36-Fe) :   0.6811
B( 14-C , 15-C ) :   1.6331 B( 14-C , 23-C ) :   1.1101 B( 14-C , 30-H ) :   0.9918
B( 15-C , 31-H ) :   0.9926 B( 16-C , 17-N ) :   1.2548 B( 16-C , 20-C ) :   1.1049
B( 16-C , 22-C ) :   1.3039 B( 17-N , 18-C ) :   1.2432 B( 17-N , 36-Fe) :   0.6295
B( 18-C , 19-C ) :   1.1081 B( 18-C , 21-C ) :   1.2732 B( 19-C , 20-C ) :   1.6357
B( 19-C , 32-H ) :   0.9946 B( 20-C , 33-H ) :   0.9932 B( 21-C , 34-H ) :   1.0216
B( 22-C , 23-C ) :   1.3009 B( 22-C , 35-H ) :   0.9949 B( 36-Fe, 49-N ) :   0.4831
B( 36-Fe, 57-O ) :   0.5105 B( 36-Fe, 58-O ) :   1.0098 B( 37-N , 38-C ) :   0.9989
B( 37-N , 53-H ) :   0.9365 B( 37-N , 54-H ) :   0.9379 B( 38-C , 39-C ) :   0.9288
B( 38-C , 42-C ) :   0.9129 B( 38-C , 55-H ) :   0.9512 B( 39-C , 40-O ) :   1.2146
B( 39-C , 41-O ) :   2.0814 B( 40-O , 56-H ) :   0.8582 B( 42-C , 43-H ) :   0.9760
B( 42-C , 44-H ) :   0.9904 B( 42-C , 45-C ) :   0.9067 B( 45-C , 46-N ) :   1.0850
B( 45-C , 50-C ) :   1.6045 B( 46-N , 47-C ) :   1.2733 B( 46-N , 52-H ) :   0.9228
B( 47-C , 48-H ) :   0.9433 B( 47-C , 49-N ) :   1.4855 B( 49-N , 50-C ) :   1.2377
B( 50-C , 51-H ) :   0.9688 B( 57-O , 58-O ) :   1.2785

-----------------------------------------------------------------------------
         ABSORPTION SPECTRUM VIA TRANSITION ELECTRIC DIPOLE MOMENTS
-----------------------------------------------------------------------------
State   Energy    Wavelength  fosc         T2        TX        TY        TZ
        (cm-1)      (nm)                 (au**2)    (au)      (au)      (au)
-----------------------------------------------------------------------------
   1    6389.6   1565.0   0.000004153   0.00021   0.00590   0.01336   0.00083
   2    9802.8   1020.1   0.000043882   0.00147   0.01818   0.03325   0.00612
   3   10398.0    961.7   0.000309656   0.00980  -0.04557  -0.08644  -0.01599
   4   11428.9    875.0   0.000133163   0.00384   0.02460   0.05555   0.01204
   5   11805.9    847.0   0.001334279   0.03721   0.16513  -0.07442  -0.06633
   6   20086.5    497.8   0.000516635   0.00847  -0.08295   0.03733   0.01390
   7   20121.6    497.0   0.002077819   0.03400  -0.08645  -0.16078  -0.02591
   8   20792.1    481.0   0.003659225   0.05794  -0.07255   0.07498  -0.21692
   9   20881.7    478.9   0.000000315   0.00000  -0.00079  -0.00188   0.00090
  10   21652.4    461.8   0.008972129   0.13642   0.11305  -0.11716   0.33153
  11   22734.9    439.9   0.002279268   0.03300   0.12960  -0.08796   0.09204
  12   22868.3    437.3   0.000246660   0.00355  -0.03512  -0.04661  -0.01202
  13   23035.4    434.1   0.002150197   0.03073  -0.02645   0.03948  -0.16873
  14   23820.4    419.8   0.000179576   0.00248  -0.02412  -0.04356  -0.00164
  15   23982.0    417.0   0.000765838   0.01051   0.05138   0.08789   0.01222
  16   24691.3    405.0   0.004647291   0.06196   0.11100   0.22240   0.01347
  17   24783.6    403.5   0.000447876   0.00595   0.05145  -0.00759  -0.05696
  18   25226.0    396.4   0.019367490   0.25276   0.08178  -0.09639   0.48660
  19   25334.3    394.7   0.002630712   0.03419  -0.03261   0.04677  -0.17588
  20   25922.5    385.8   0.001067785   0.01356   0.05090   0.10436   0.00886
  21   26451.6    378.0   0.002888112   0.03594   0.16193  -0.09752  -0.01467
  22   27638.4    361.8   0.007250274   0.08636   0.25095  -0.13224  -0.07679
  23   27873.2    358.8   0.005457777   0.06446  -0.10551  -0.22085  -0.06750
  24   27889.6    358.6   0.007999190   0.09442   0.17990  -0.03254  -0.24698
  25   30147.9    331.7   0.589438443   6.43660  -2.23928   0.98389   0.67392
  26   30213.1    331.0   0.293077112   3.19347  -0.66114  -1.63275  -0.30080
  27   30777.1    324.9   0.144444474   1.54507   0.74764   0.98275   0.14254
  28   30803.9    324.6   0.019564525   0.20909   0.05928   0.44845   0.06686
  29   30830.1    324.4   0.056474821   0.60305  -0.66430   0.32842   0.23217
  30   30925.0    323.4   0.178319447   1.89830   0.60542   1.22025   0.20678
  31   31059.2    322.0   0.003638731   0.03857   0.06998  -0.02851   0.18127
  32   31732.8    315.1   0.199596802   2.07072  -0.68689  -1.24797  -0.20364
  33   31979.4    312.7   0.101857838   1.04858  -0.87176   0.45227   0.28995
  34   32209.2    310.5   0.001772228   0.01811  -0.05210  -0.06927  -0.10296
  35   32438.2    308.3   0.004677284   0.04747   0.11305   0.14527   0.11655
  36   32844.5    304.5   0.005224802   0.05237   0.03398   0.11734  -0.19351
  37   33003.0    303.0   0.021037878   0.20986   0.21355   0.39401   0.09490
  38   33298.7    300.3   0.008406146   0.08311   0.26262  -0.07926  -0.08864
  39   33505.1    298.5   0.002801065   0.02752   0.13468  -0.06876  -0.06824
  40   33613.6    297.5   0.000268881   0.00263   0.02630  -0.00701   0.04350
  41   33701.0    296.7   0.001148777   0.01122  -0.02053   0.05318  -0.08929
  42   34044.7    293.7   0.000814508   0.00788  -0.00119   0.00684   0.08848
  43   34275.4    291.8   0.000404650   0.00389  -0.05635   0.02667   0.00008
  44   34638.2    288.7   0.001004079   0.00954   0.08853  -0.02766  -0.03067
  45   34889.2    286.6   0.054789966   0.51699  -0.66551   0.23082   0.14424
  46   34931.9    286.3   0.045043417   0.42451  -0.22307   0.58117   0.19233
  47   35030.1    285.5   0.379469329   3.56624  -1.67058   0.71139   0.51896
  48   35151.7    284.5   0.001324477   0.01240   0.02116   0.10870   0.01184
  49   35252.5    283.7   0.263563763   2.46134  -0.80129  -1.33359  -0.20202
  50   35303.6    283.3   0.233712031   2.17941  -0.60773  -1.32379  -0.24012
  51   35832.9    279.1   0.003746050   0.03442  -0.07191  -0.16861  -0.02858
  52   36244.8    275.9   0.001152150   0.01046  -0.08484  -0.05087  -0.02606
  53   36352.9    275.1   0.007483044   0.06777   0.21416  -0.13969   0.04887
  54   36557.0    273.5   0.000482075   0.00434  -0.01723  -0.05957  -0.02227
  55   36668.8    272.7   0.084625492   0.75977  -0.74853   0.36322   0.25990
  56   36901.5    271.0   0.056523383   0.50427  -0.60155   0.28696   0.24508
  57   37159.0    269.1   0.001509809   0.01338  -0.03247  -0.00351   0.11095
  58   37804.0    264.5   0.002952096   0.02571   0.07672   0.11152   0.08595
  59   38008.4    263.1   0.005473098   0.04741   0.06741   0.20164   0.04693
  60   38086.4    262.6   0.236128204   2.04105  -0.70004  -1.23337  -0.17254

FINAL SINGLE POINT ENERGY     -2950.849675373822

DIPOLE MOMENT
-------------
                                X             Y             Z
Electronic contribution:     -3.27720       0.92783     -20.40175
Nuclear contribution   :      4.66321      -2.46996      23.05163
                        -----------------------------------------
Total Dipole Moment    :      1.38600      -1.54214       2.64989
                        -----------------------------------------
Magnitude (a.u.)       :      3.36468
Magnitude (Debye)      :      8.55234

Rotational constants in cm-1:     0.004510     0.002689     0.002593
Rotational constants in MHz :   135.204212    80.623974    77.736921

                             ****ORCA TERMINATED NORMALLY****
TOTAL RUN TIME: 0 days 9 hours 28 minutes 44 seconds 983 msec
