                         Program Version 5.0.4 -  RELEASE  -
|  1> !B3LYP DEF2-QZVPP D4 KEEPDENS SOSCF
|  2>
|  3> %scf
|  4> convergence verytight
|  5> end
|  6>
|  7> * xyz 1 2
|  8>   C   -3.86516734357010      0.94434157945665     -0.07538725943809
|  9>   C   -4.92272831379506      0.26873722983356     -0.70264597592121
| 10>   C   -5.03057771819703     -1.11798142899817     -0.59784356576840
| 11>   C   -4.08352665954933     -1.84223577131705      0.13553018590779
| 12>   C   -3.02981102252337     -1.17199643200787      0.76088165488684
| 13>   C   -2.91953321612422      0.21863970639081      0.65722704147654
| 14>   C   -3.81073419980518      2.46478525764726     -0.19518116082199
| 15>   H   -5.65406019384117      0.84349861132032     -1.27491300280147
| 16>   H   -5.85623938274783     -1.63850776567522     -1.09027562821825
| 17>   H   -4.16802260279406     -2.92913883238131      0.21698779894580
| 18>   H   -2.28611135457989     -1.73328106107773      1.33282673748350
| 19>   H   -2.09792478362700      0.74948053847094      1.13911505725274
| 20>   O   -4.89378187167171      3.07132909731433      0.44720048381772
| 21>   H   -4.93072682950342      2.71104471332091      1.34348100678890
| 22>   O   -2.59608443456263      2.90295951283218      0.34520695932434
| 23>   H   -2.62116462808870      3.87067963083761      0.29505823914507
| 24>   O   -3.95270938377184      2.89080295116375     -1.51804130322301
| 25>   H   -3.24608606124737      2.46925246286899     -2.02593726883681
| 26> **                         ****END OF INPUT****

CARTESIAN COORDINATES (ANGSTROEM)
---------------------------------
  C     -3.865167    0.944342   -0.075387
  C     -4.922728    0.268737   -0.702646
  C     -5.030578   -1.117981   -0.597844
  C     -4.083527   -1.842236    0.135530
  C     -3.029811   -1.171996    0.760882
  C     -2.919533    0.218640    0.657227
  C     -3.810734    2.464785   -0.195181
  H     -5.654060    0.843499   -1.274913
  H     -5.856239   -1.638508   -1.090276
  H     -4.168023   -2.929139    0.216988
  H     -2.286111   -1.733281    1.332827
  H     -2.097925    0.749481    1.139115
  O     -4.893782    3.071329    0.447200
  H     -4.930727    2.711045    1.343481
  O     -2.596084    2.902960    0.345207
  H     -2.621165    3.870680    0.295058
  O     -3.952709    2.890803   -1.518041
  H     -3.246086    2.469252   -2.025937

 Total Charge           Charge          ....    1
 Multiplicity           Mult            ....    2
 Number of Electrons    NEL             ....   73
 Basis Dimension        Dim             ....  810

ORBITAL ENERGIES
----------------
                 SPIN UP ORBITALS
  NO   OCC          E(Eh)            E(eV)
   0   1.0000     -19.330660      -526.0140
   1   1.0000     -19.324953      -525.8587
   2   1.0000     -19.317061      -525.6440
   3   1.0000     -10.521611      -286.3076
   4   1.0000     -10.424815      -283.6736
   5   1.0000     -10.413366      -283.3621
   6   1.0000     -10.401454      -283.0379
   7   1.0000     -10.398248      -282.9507
   8   1.0000     -10.384259      -282.5700
   9   1.0000     -10.381681      -282.4999
  10   1.0000      -1.294340       -35.2208
  11   1.0000      -1.198538       -32.6139
  12   1.0000      -1.189137       -32.3581
  13   1.0000      -1.077781       -29.3279
  14   1.0000      -0.982792       -26.7431
  15   1.0000      -0.954349       -25.9691
  16   1.0000      -0.861458       -23.4415
  17   1.0000      -0.820639       -22.3307
  18   1.0000      -0.803897       -21.8752
  19   1.0000      -0.762826       -20.7576
  20   1.0000      -0.718970       -19.5642
  21   1.0000      -0.684212       -18.6184
  22   1.0000      -0.680019       -18.5043
  23   1.0000      -0.657240       -17.8844
  24   1.0000      -0.643852       -17.5201
  25   1.0000      -0.622979       -16.9521
  26   1.0000      -0.612208       -16.6590
  27   1.0000      -0.604410       -16.4468
  28   1.0000      -0.583742       -15.8844
  29   1.0000      -0.574058       -15.6209
  30   1.0000      -0.550281       -14.9739
  31   1.0000      -0.533653       -14.5214
  32   1.0000      -0.526719       -14.3327
  33   1.0000      -0.492484       -13.4012
  34   1.0000      -0.489034       -13.3073
  35   1.0000      -0.469376       -12.7724
  36   1.0000      -0.462542       -12.5864
  37   0.0000      -0.241017        -6.5584
  38   0.0000      -0.217423        -5.9164
  39   0.0000      -0.139285        -3.7901
  40   0.0000      -0.116370        -3.1666
  41   0.0000      -0.101871        -2.7720

                 SPIN DOWN ORBITALS
  NO   OCC          E(Eh)            E(eV)
   0   1.0000     -19.327776      -525.9355
   1   1.0000     -19.322646      -525.7959
   2   1.0000     -19.315583      -525.6037
   3   1.0000     -10.521974      -286.3175
   4   1.0000     -10.419948      -283.5412
   5   1.0000     -10.408560      -283.2313
   6   1.0000     -10.398997      -282.9711
   7   1.0000     -10.396458      -282.9020
   8   1.0000     -10.384895      -282.5874
   9   1.0000     -10.382757      -282.5292
  10   1.0000      -1.290552       -35.1177
  11   1.0000      -1.192692       -32.4548
  12   1.0000      -1.185044       -32.2467
  13   1.0000      -1.068531       -29.0762
  14   1.0000      -0.968544       -26.3554
  15   1.0000      -0.951958       -25.9041
  16   1.0000      -0.857386       -23.3307
  17   1.0000      -0.815994       -22.2043
  18   1.0000      -0.800230       -21.7754
  19   1.0000      -0.760147       -20.6846
  20   1.0000      -0.717107       -19.5135
  21   1.0000      -0.681265       -18.5382
  22   1.0000      -0.676270       -18.4022
  23   1.0000      -0.653596       -17.7853
  24   1.0000      -0.640147       -17.4193
  25   1.0000      -0.622224       -16.9316
  26   1.0000      -0.604661       -16.4537
  27   1.0000      -0.600352       -16.3364
  28   1.0000      -0.570944       -15.5362
  29   1.0000      -0.563389       -15.3306
  30   1.0000      -0.547635       -14.9019
  31   1.0000      -0.525126       -14.2894
  32   1.0000      -0.515291       -14.0218
  33   1.0000      -0.479204       -13.0398
  34   1.0000      -0.466228       -12.6867
  35   1.0000      -0.457458       -12.4481
  36   0.0000      -0.399710       -10.8767
  37   0.0000      -0.210833        -5.7370
  38   0.0000      -0.206594        -5.6217
  39   0.0000      -0.138419        -3.7666
  40   0.0000      -0.115561        -3.1446

MULLIKEN ATOMIC CHARGES AND SPIN POPULATIONS
--------------------------------------------
   0 C :    0.173270    0.319353
   1 C :   -0.037250    0.160478
   2 C :   -0.048465   -0.066821
   3 C :    0.050987    0.327296
   4 C :   -0.010482    0.129132
   5 C :   -0.066669   -0.039594
   6 C :    0.526796   -0.025200
   7 H :    0.157020   -0.004747
   8 H :    0.117167    0.000487
   9 H :    0.128224   -0.011437
  10 H :    0.123567   -0.005477
  11 H :    0.126375   -0.000558
  12 O :   -0.296702    0.098078
  13 H :    0.240339   -0.004722
  14 O :   -0.373571    0.051172
  15 H :    0.257773   -0.002461
  16 O :   -0.314211    0.079528
  17 H :    0.245833   -0.004507
Sum of atomic charges         :    1.0000000

LOEWDIN ATOMIC CHARGES AND SPIN POPULATIONS
-------------------------------------------
   0 C :   -0.013006    0.224986
   1 C :    0.175526    0.135194
   2 C :    0.138311    0.016073
   3 C :    0.195570    0.223450
   4 C :    0.167178    0.119139
   5 C :    0.145787    0.027958
   6 C :   -0.900887    0.016325
   7 H :   -0.014530    0.009302
   8 H :   -0.026954   -0.004453
   9 H :   -0.016231    0.021091
  10 H :   -0.021693    0.008101
  11 H :   -0.028963   -0.002806
  12 O :    0.732880    0.082181
  13 H :   -0.317563    0.006808
  14 O :    0.690073    0.042361
  15 H :   -0.310719    0.003262
  16 O :    0.723193    0.065897
  17 H :   -0.317973    0.005132

  Mayer bond orders larger than 0.100000
B(  0-C ,  1-C ) :   1.0747 B(  0-C ,  5-C ) :   1.1615 B(  0-C ,  6-C ) :   0.8660
B(  1-C ,  2-C ) :   1.3818 B(  1-C ,  7-H ) :   0.9420 B(  2-C ,  3-C ) :   1.2515
B(  2-C ,  8-H ) :   0.9546 B(  3-C ,  4-C ) :   1.1617 B(  3-C ,  9-H ) :   0.9478
B(  4-C ,  5-C ) :   1.3915 B(  4-C , 10-H ) :   0.9514 B(  5-C , 11-H ) :   0.9447
B(  6-C , 12-O ) :   1.0320 B(  6-C , 14-O ) :   1.1105 B(  6-C , 16-O ) :   1.0364
B( 12-O , 13-H ) :   0.9597 B( 14-O , 15-H ) :   0.9406 B( 16-O , 17-H ) :   0.9551

Dispersion correction           -0.027685181
FINAL SINGLE POINT ENERGY      -496.899127294476

DIPOLE MOMENT
-------------
                                X             Y             Z
Electronic contribution:     -0.05855       1.66211      -0.20742
Nuclear contribution   :      0.31644      -3.51876       0.56972
                        -----------------------------------------
Total Dipole Moment    :      0.25788      -1.85665       0.36230
                        -----------------------------------------
Magnitude (a.u.)       :      1.90917
Magnitude (Debye)      :      4.85272

Rotational constants in cm-1:     0.093520     0.032173     0.027486
Rotational constants in MHz :  2803.659723   964.517439   824.009769

                             ****ORCA TERMINATED NORMALLY****
TOTAL RUN TIME: 0 days 0 hours 25 minutes 37 seconds 941 msec
