                         Program Version 5.0.4 -  RELEASE  -
|  1> !B3LYP DEF2-SVP D4 OPT FREQ SOSCF
|  2>
|  3> %Base "first_job"
|  4>
|  5> * xyz 0 1
|  6>    C       -3.21026       -1.73499        0.01965
|  7>    C       -4.37813       -1.08016       -0.01245
|  8>    C       -5.66740       -1.75016        0.02378
|  9>    C       -6.85498       -1.11747       -0.02680
| 10>    C       -8.19524       -1.80422       -0.00066
| 11>    H       -8.40553       -2.31995       -0.97612
| 12>    H       -9.02275       -1.07531        0.17504
| 13>    H       -8.24088       -2.58404        0.80311
| 14>    F       -2.03329       -1.09838       -0.00528
| 15>    H       -3.10103       -2.82386        0.06998
| 16>    H       -4.35566        0.01430       -0.06560
| 17>    H       -5.65066       -2.84724        0.10165
| 18>    H       -6.85265       -0.02162       -0.11238
| 19> *
| 20>
| 21> $new_job
| 22>
| 23> !B3LYP DEF2-QZVP
| 24>
| 25> %base "second_job"
| 26>
| 27> %scf
| 28> convergence tight
| 29> end
| 30>
| 31> * XYZfile 0 1 first_job.xyz
| 32>
| 33>                          ****END OF INPUT****
 Total Charge           Charge          ....    0
 Multiplicity           Mult            ....    1
 Number of Electrons    NEL             ....   46
Dispersion correction           -0.013268610
FINAL SINGLE POINT ENERGY      -294.170651021699
Dispersion correction            ... Starting D4
Dispersion correction           -0.013273140
FINAL SINGLE POINT ENERGY      -294.171351274433
Dispersion correction            ... Starting D4
Dispersion correction           -0.013273073
FINAL SINGLE POINT ENERGY      -294.171546630218
Dispersion correction            ... Starting D4
FINAL SINGLE POINT ENERGY      -294.171979300275
FINAL SINGLE POINT ENERGY      -294.172411870510
FINAL SINGLE POINT ENERGY      -294.172844603101
FINAL SINGLE POINT ENERGY      -294.173267620602
FINAL SINGLE POINT ENERGY      -294.173635327953
FINAL SINGLE POINT ENERGY      -294.173879326581
FINAL SINGLE POINT ENERGY      -294.173913336156
Dispersion correction            ... Starting D4
Dispersion correction           -0.013272813
FINAL SINGLE POINT ENERGY      -294.173921967855
Dispersion correction            ... Starting D4
                    ***********************HURRAY********************
Dispersion correction           -0.013273351
FINAL SINGLE POINT ENERGY      -294.173922682009
Dispersion correction in the Hessian             ... Starting D4

VIBRATIONAL FREQUENCIES
-----------------------

Scaling factor for frequencies =  1.000000000  (already applied!)

   0:         0.00 cm**-1
   1:         0.00 cm**-1
   2:         0.00 cm**-1
   3:         0.00 cm**-1
   4:         0.00 cm**-1
   5:         0.00 cm**-1
   6:       113.34 cm**-1
   7:       142.72 cm**-1
   8:       187.22 cm**-1
   9:       239.69 cm**-1
  10:       356.97 cm**-1
  11:       371.82 cm**-1
  12:       422.65 cm**-1
  13:       585.21 cm**-1
  14:       804.06 cm**-1
  15:       869.24 cm**-1
  16:       932.64 cm**-1
  17:       936.74 cm**-1
  18:      1009.24 cm**-1
  19:      1051.00 cm**-1
  20:      1094.65 cm**-1
  21:      1176.31 cm**-1
  22:      1186.83 cm**-1
  23:      1237.83 cm**-1
  24:      1313.10 cm**-1
  25:      1317.79 cm**-1
  26:      1348.52 cm**-1
  27:      1396.47 cm**-1
  28:      1448.10 cm**-1
  29:      1458.95 cm**-1
  30:      1707.67 cm**-1
  31:      1750.80 cm**-1
  32:      3006.99 cm**-1
  33:      3064.36 cm**-1
  34:      3107.38 cm**-1
  35:      3124.69 cm**-1
  36:      3131.30 cm**-1
  37:      3166.35 cm**-1
  38:      3184.07 cm**-1

IR SPECTRUM
-----------

 Mode   freq       eps      Int      T**2         TX        TY        TZ
       cm**-1   L/(mol*cm) km/mol    a.u.
----------------------------------------------------------------------------
  6:    113.34   0.000075    0.38  0.000207  (-0.000247  0.003724  0.013899)
  7:    142.72   0.000205    1.04  0.000448  (-0.014794 -0.014778  0.003351)
  8:    187.22   0.000192    0.97  0.000319  (-0.000513  0.004454  0.017297)
  9:    239.69   0.000015    0.07  0.000019  ( 0.000093 -0.001098 -0.004214)
 10:    356.97   0.000600    3.03  0.000525  ( 0.015031 -0.016634  0.004701)
 11:    371.82   0.000448    2.26  0.000376  ( 0.000938 -0.004730 -0.018782)
 12:    422.65   0.000453    2.29  0.000334  (-0.017395 -0.005564  0.000810)
 13:    585.21   0.002139   10.81  0.001141  (-0.031218  0.012186 -0.004178)
 14:    804.06   0.000239    1.21  0.000093  (-0.000230  0.002384  0.009329)
 15:    869.24   0.000033    0.17  0.000012  (-0.000492  0.000918  0.003263)
 16:    932.64   0.002470   12.48  0.000827  (-0.000409  0.006924  0.027901)
 17:    936.74   0.005881   29.72  0.001959  (-0.042482  0.011815 -0.003872)
 18:   1009.24   0.011271   56.96  0.003485  (-0.001910  0.014519  0.057188)
 19:   1051.00   0.000002    0.01  0.000000  ( 0.000097  0.000113  0.000656)
 20:   1094.65   0.004279   21.62  0.001220  (-0.033513 -0.009728  0.001395)
 21:   1176.31   0.031981  161.62  0.008484  (-0.089693 -0.020838  0.002241)
 22:   1186.83   0.002125   10.74  0.000559  (-0.022686 -0.006588  0.000879)
 23:   1237.83   0.001658    8.38  0.000418  ( 0.016873  0.011306 -0.002318)
 24:   1313.10   0.000962    4.86  0.000229  ( 0.014476 -0.004079  0.001558)
 25:   1317.79   0.000319    1.61  0.000076  ( 0.004779 -0.006995  0.001970)
 26:   1348.52   0.000301    1.52  0.000070  ( 0.006068  0.005603 -0.001174)
 27:   1396.47   0.000603    3.05  0.000135  ( 0.009669 -0.006115  0.001947)
 28:   1448.10   0.001346    6.80  0.000290  ( 0.000681 -0.004345 -0.016457)
 29:   1458.95   0.002824   14.27  0.000604  (-0.017972  0.016065 -0.004787)
 30:   1707.67   0.012881   65.10  0.002354  (-0.048449 -0.002367 -0.001009)
 31:   1750.80   0.007351   37.15  0.001310  ( 0.036162 -0.000724  0.001449)
 32:   3006.99   0.006751   34.12  0.000701  ( 0.026210  0.003692 -0.000177)
 33:   3064.36   0.003305   16.70  0.000337  (-0.000476  0.004554  0.017765)
 34:   3107.38   0.001247    6.30  0.000125  ( 0.004889 -0.009698  0.002691)
 35:   3124.69   0.000167    0.84  0.000017  ( 0.003468  0.002125 -0.000382)
 36:   3131.30   0.007198   36.38  0.000717  ( 0.003851  0.025726 -0.006381)
 37:   3166.35   0.001929    9.75  0.000190  (-0.010227 -0.009045  0.001922)
 38:   3184.07   0.002235   11.29  0.000219  ( 0.005781  0.013258 -0.003133)

--------------------------
THERMOCHEMISTRY AT 298.15K
--------------------------

Temperature         ... 298.15 K
Pressure            ... 1.00 atm
Total Mass          ... 86.11 AMU

Throughout the following assumptions are being made:
  (1) The electronic state is orbitally nondegenerate
  (2) There are no thermally accessible electronically excited states
  (3) Hindered rotations indicated by low frequency modes are not
      treated as such but are treated as vibrations and this may
      cause some error
  (4) All equations used are the standard statistical mechanics
      equations for an ideal gas
  (5) All vibrations are strictly harmonic

freq.     113.34  E(vib)   ...       0.45
freq.     142.72  E(vib)   ...       0.41
freq.     187.22  E(vib)   ...       0.36
freq.     239.69  E(vib)   ...       0.31
freq.     356.97  E(vib)   ...       0.22
freq.     371.82  E(vib)   ...       0.21
freq.     422.65  E(vib)   ...       0.18
freq.     585.21  E(vib)   ...       0.11
freq.     804.06  E(vib)   ...       0.05
freq.     869.24  E(vib)   ...       0.04
freq.     932.64  E(vib)   ...       0.03
freq.     936.74  E(vib)   ...       0.03
freq.    1009.24  E(vib)   ...       0.02
freq.    1051.00  E(vib)   ...       0.02
freq.    1094.65  E(vib)   ...       0.02
freq.    1176.31  E(vib)   ...       0.01
freq.    1186.83  E(vib)   ...       0.01
freq.    1237.83  E(vib)   ...       0.01
freq.    1313.10  E(vib)   ...       0.01
freq.    1317.79  E(vib)   ...       0.01
freq.    1348.52  E(vib)   ...       0.01
freq.    1396.47  E(vib)   ...       0.00
freq.    1448.10  E(vib)   ...       0.00
freq.    1458.95  E(vib)   ...       0.00
freq.    1707.67  E(vib)   ...       0.00
freq.    1750.80  E(vib)   ...       0.00
freq.    3006.99  E(vib)   ...       0.00
freq.    3064.36  E(vib)   ...       0.00
freq.    3107.38  E(vib)   ...       0.00
freq.    3124.69  E(vib)   ...       0.00
freq.    3131.30  E(vib)   ...       0.00
freq.    3166.35  E(vib)   ...       0.00
freq.    3184.07  E(vib)   ...       0.00

------------
INNER ENERGY
------------

The inner energy is: U= E(el) + E(ZPE) + E(vib) + E(rot) + E(trans)
    E(el)   - is the total energy from the electronic structure calculation
              = E(kin-el) + E(nuc-el) + E(el-el) + E(nuc-nuc)
    E(ZPE)  - the the zero temperature vibrational energy from the frequency calculation
    E(vib)  - the the finite temperature correction to E(ZPE) due to population
              of excited vibrational states
    E(rot)  - is the rotational thermal energy
    E(trans)- is the translational thermal energy

Summary of contributions to the inner energy U:
Electronic energy                ...   -294.17392268 Eh
Zero point energy                ...      0.10535315 Eh      66.11 kcal/mol
Thermal vibrational correction   ...      0.00402326 Eh       2.52 kcal/mol
Thermal rotational correction    ...      0.00141627 Eh       0.89 kcal/mol
Thermal translational correction ...      0.00141627 Eh       0.89 kcal/mol
-----------------------------------------------------------------------
Total thermal energy                   -294.06171373 Eh

Summary of corrections to the electronic energy:
(perhaps to be used in another calculation)
Total thermal correction                  0.00685580 Eh       4.30 kcal/mol
Non-thermal (ZPE) correction              0.10535315 Eh      66.11 kcal/mol
-----------------------------------------------------------------------
Total correction                          0.11220895 Eh      70.41 kcal/mol

--------
ENTHALPY
--------

The enthalpy is H = U + kB*T
                kB is Boltzmann's constant
Total free energy                 ...   -294.06171373 Eh
Thermal Enthalpy correction       ...      0.00094421 Eh       0.59 kcal/mol
-----------------------------------------------------------------------
Total Enthalpy                    ...   -294.06076952 Eh

Note: Only C1 symmetry has been detected, increase convergence thresholds
      if your molecule has a higher symmetry. Symmetry factor of 1.0 is
      used for the rotational entropy correction.

Note: Rotational entropy computed according to Herzberg
Infrared and Raman Spectra, Chapter V,1, Van Nostrand Reinhold, 1945
Point Group:  C1, Symmetry Number:   1
Rotational constants in cm-1:     0.894242     0.039340     0.037950

Vibrational entropy computed according to the QRRHO of S. Grimme
Chem.Eur.J. 2012 18 9955

-------
ENTROPY
-------

The entropy contributions are T*S = T*(S(el)+S(vib)+S(rot)+S(trans))
     S(el)   - electronic entropy
     S(vib)  - vibrational entropy
     S(rot)  - rotational entropy
     S(trans)- translational entropy
The entropies will be listed as multiplied by the temperature to get
units of energy

Electronic entropy                ...      0.00000000 Eh      0.00 kcal/mol
Vibrational entropy               ...      0.00687656 Eh      4.32 kcal/mol
Rotational entropy                ...      0.01263547 Eh      7.93 kcal/mol
Translational entropy             ...      0.01865943 Eh     11.71 kcal/mol
-----------------------------------------------------------------------
Final entropy term                ...      0.03817146 Eh     23.95 kcal/mol

In case the symmetry of your molecule has not been determined correctly
or in case you have a reason to use a different symmetry number we print
out the resulting rotational entropy values for sn=1,12 :
 --------------------------------------------------------
|  sn= 1 | S(rot)=       0.01263547 Eh      7.93 kcal/mol|
|  sn= 2 | S(rot)=       0.01198101 Eh      7.52 kcal/mol|
|  sn= 3 | S(rot)=       0.01159818 Eh      7.28 kcal/mol|
|  sn= 4 | S(rot)=       0.01132656 Eh      7.11 kcal/mol|
|  sn= 5 | S(rot)=       0.01111587 Eh      6.98 kcal/mol|
|  sn= 6 | S(rot)=       0.01094372 Eh      6.87 kcal/mol|
|  sn= 7 | S(rot)=       0.01079818 Eh      6.78 kcal/mol|
|  sn= 8 | S(rot)=       0.01067210 Eh      6.70 kcal/mol|
|  sn= 9 | S(rot)=       0.01056089 Eh      6.63 kcal/mol|
|  sn=10 | S(rot)=       0.01046141 Eh      6.56 kcal/mol|
|  sn=11 | S(rot)=       0.01037142 Eh      6.51 kcal/mol|
|  sn=12 | S(rot)=       0.01028927 Eh      6.46 kcal/mol|
 --------------------------------------------------------

-------------------
GIBBS FREE ENERGY
-------------------

The Gibbs free energy is G = H - T*S

Total enthalpy                    ...   -294.06076952 Eh
Total entropy correction          ...     -0.03817146 Eh    -23.95 kcal/mol
-----------------------------------------------------------------------
Final Gibbs free energy         ...   -294.09894098 Eh

For completeness - the Gibbs free energy minus the electronic energy
G-E(el)                           ...      0.07498170 Eh     47.05 kcal/mol

CARTESIAN COORDINATES (ANGSTROEM)
---------------------------------
  C     -3.210162   -1.717857    0.123740
  C     -4.378635   -1.095828   -0.075304
  C     -5.667018   -1.756141    0.052240
  C     -6.852909   -1.148891   -0.137341
  C     -8.191251   -1.806709   -0.008902
  H     -8.761755   -1.743206   -0.953153
  H     -8.810123   -1.308992    0.759599
  H     -8.100072   -2.869946    0.263446
  F     -2.037842   -1.084187    0.003291
  H     -3.095164   -2.772230    0.396606
  H     -4.355654   -0.034590   -0.345901
  H     -5.653803   -2.820100    0.323333
  H     -6.854073   -0.084421   -0.407734

 Multiplicity           Mult            ....    1
 Number of Electrons    NEL             ....   46
 Basis Dimension        Dim             ....  552

ORBITAL ENERGIES
----------------

  NO   OCC          E(Eh)            E(eV)
   0   2.0000     -24.693396      -671.9415
   1   2.0000     -10.256258      -279.0870
   2   2.0000     -10.184819      -277.1430
   3   2.0000     -10.184057      -277.1223
   4   2.0000     -10.182984      -277.0931
   5   2.0000     -10.176200      -276.9085
   6   2.0000      -1.229530       -33.4572
   7   2.0000      -0.818247       -22.2656
   8   2.0000      -0.765703       -20.8358
   9   2.0000      -0.688174       -18.7262
  10   2.0000      -0.604714       -16.4551
  11   2.0000      -0.566287       -15.4095
  12   2.0000      -0.520911       -14.1747
  13   2.0000      -0.499626       -13.5955
  14   2.0000      -0.467991       -12.7347
  15   2.0000      -0.446995       -12.1633
  16   2.0000      -0.416125       -11.3233
  17   2.0000      -0.414483       -11.2786
  18   2.0000      -0.380163       -10.3448
  19   2.0000      -0.372477       -10.1356
  20   2.0000      -0.356561        -9.7025
  21   2.0000      -0.320691        -8.7264
  22   2.0000      -0.225229        -6.1288
  23   0.0000      -0.028203        -0.7674
  24   0.0000       0.026491         0.7209
  25   0.0000       0.030256         0.8233
  26   0.0000       0.040468         1.1012
  27   0.0000       0.051278         1.3954

MULLIKEN ATOMIC CHARGES
-----------------------
   0 C :    0.125777
   1 C :   -0.024409
   2 C :   -0.039413
   3 C :   -0.047793
   4 C :   -0.092634
   5 H :    0.050135
   6 H :    0.049989
   7 H :    0.042275
   8 F :   -0.240355
   9 H :    0.074007
  10 H :    0.050662
  11 H :    0.019507
  12 H :    0.032254
Sum of atomic charges:   -0.0000000

LOEWDIN ATOMIC CHARGES
----------------------
   0 C :   -0.262656
   1 C :    0.009327
   2 C :    0.020414
   3 C :    0.050014
   4 C :    0.200250
   5 H :   -0.051097
   6 H :   -0.050999
   7 H :   -0.050380
   8 F :    0.383090
   9 H :   -0.084916
  10 H :   -0.050699
  11 H :   -0.051044
  12 H :   -0.061304

  Mayer bond orders larger than 0.100000
B(  0-C ,  1-C ) :   1.7133 B(  0-C ,  8-F ) :   0.9912 B(  0-C ,  9-H ) :   0.9822
B(  1-C ,  2-C ) :   1.0316 B(  1-C , 10-H ) :   0.9557 B(  2-C ,  3-C ) :   1.6459
B(  2-C , 11-H ) :   0.9693 B(  3-C ,  4-C ) :   0.9808 B(  3-C , 12-H ) :   0.9669
B(  4-C ,  5-H ) :   0.9568 B(  4-C ,  6-H ) :   0.9566 B(  4-C ,  7-H ) :   0.9646

Dispersion correction           -0.013273351
FINAL SINGLE POINT ENERGY      -294.535231287387

DIPOLE MOMENT
-------------
                                X             Y             Z
Electronic contribution:     12.45383       1.62200      -0.01708
Nuclear contribution   :    -13.10598      -1.87130       0.06027
                        -----------------------------------------
Total Dipole Moment    :     -0.65215      -0.24930       0.04319
                        -----------------------------------------
Magnitude (a.u.)       :      0.69951
Magnitude (Debye)      :      1.77800

Rotational constants in cm-1:     0.894242     0.039340     0.037950
Rotational constants in MHz : 26808.705355  1179.393866  1137.707994

                             ****ORCA TERMINATED NORMALLY****
TOTAL RUN TIME: 0 days 0 hours 45 minutes 54 seconds 887 msec
