                         Program Version 5.0.4 -  RELEASE  -
|  1> !B3LYP DEF2-QZVP
|  2>
|  3> %scf
|  4> smeartemp 5000
|  5> convergence tight
|  6> end
|  7>
|  8> * xyz 0 1
|  9>   C   -3.86516734357010      0.94434157945665     -0.07538725943809
| 10>   C   -4.92272831379506      0.26873722983356     -0.70264597592121
| 11>   C   -5.03057771819703     -1.11798142899817     -0.59784356576840
| 12>   C   -4.08352665954933     -1.84223577131705      0.13553018590779
| 13>   C   -3.02981102252337     -1.17199643200787      0.76088165488684
| 14>   C   -2.91953321612422      0.21863970639081      0.65722704147654
| 15>   C   -3.81073419980518      2.46478525764726     -0.19518116082199
| 16>   H   -5.65406019384117      0.84349861132032     -1.27491300280147
| 17>   H   -5.85623938274783     -1.63850776567522     -1.09027562821825
| 18>   H   -4.16802260279406     -2.92913883238131      0.21698779894580
| 19>   H   -2.28611135457989     -1.73328106107773      1.33282673748350
| 20>   H   -2.09792478362700      0.74948053847094      1.13911505725274
| 21>   O   -4.89378187167171      3.07132909731433      0.44720048381772
| 22>   H   -4.93072682950342      2.71104471332091      1.34348100678890
| 23>   O   -2.59608443456263      2.90295951283218      0.34520695932434
| 24>   H   -2.62116462808870      3.87067963083761      0.29505823914507
| 25>   O   -3.95270938377184      2.89080295116375     -1.51804130322301
| 26>   H   -3.24608606124737      2.46925246286899     -2.02593726883681
| 27> **                         ****END OF INPUT****

CARTESIAN COORDINATES (ANGSTROEM)
---------------------------------
  C     -3.865167    0.944342   -0.075387
  C     -4.922728    0.268737   -0.702646
  C     -5.030578   -1.117981   -0.597844
  C     -4.083527   -1.842236    0.135530
  C     -3.029811   -1.171996    0.760882
  C     -2.919533    0.218640    0.657227
  C     -3.810734    2.464785   -0.195181
  H     -5.654060    0.843499   -1.274913
  H     -5.856239   -1.638508   -1.090276
  H     -4.168023   -2.929139    0.216988
  H     -2.286111   -1.733281    1.332827
  H     -2.097925    0.749481    1.139115
  O     -4.893782    3.071329    0.447200
  H     -4.930727    2.711045    1.343481
  O     -2.596084    2.902960    0.345207
  H     -2.621165    3.870680    0.295058
  O     -3.952709    2.890803   -1.518041
  H     -3.246086    2.469252   -2.025937

 Total Charge           Charge          ....    0
 Multiplicity           Mult            ....    1
 Number of Electrons    NEL             ....   74
 Basis Dimension        Dim             ....  810

ORBITAL ENERGIES
----------------

  NO   OCC          E(Eh)            E(eV)
   0   2.0000     -19.143961      -520.9337
   1   2.0000     -19.143721      -520.9271
   2   2.0000     -19.142996      -520.9074
   3   2.0000     -10.337840      -281.3069
   4   2.0000     -10.191559      -277.3264
   5   2.0000     -10.185789      -277.1694
   6   2.0000     -10.185076      -277.1500
   7   2.0000     -10.184855      -277.1440
   8   2.0000     -10.184276      -277.1282
   9   2.0000     -10.184216      -277.1266
  10   2.0000      -1.115350       -30.3502
  11   2.0000      -1.017798       -27.6957
  12   2.0000      -1.015053       -27.6210
  13   2.0000      -0.861571       -23.4446
  14   2.0000      -0.766071       -20.8458
  15   2.0000      -0.750920       -20.4336
  16   2.0000      -0.671156       -18.2631
  17   2.0000      -0.622833       -16.9481
  18   2.0000      -0.608589       -16.5606
  19   2.0000      -0.573419       -15.6035
  20   2.0000      -0.528161       -14.3720
  21   2.0000      -0.505941       -13.7673
  22   2.0000      -0.483804       -13.1650
  23   2.0000      -0.453269       -12.3341
  24   2.0000      -0.452379       -12.3099
  25   2.0000      -0.432296       -11.7634
  26   2.0000      -0.428084       -11.6488
  27   2.0000      -0.423377       -11.5207
  28   2.0000      -0.380136       -10.3440
  29   2.0000      -0.376531       -10.2459
  30   2.0000      -0.353029        -9.6064
  31   2.0000      -0.349940        -9.5224
  32   2.0000      -0.342763        -9.3270
  33   1.9999      -0.307503        -8.3676
  34   1.9999      -0.301028        -8.1914
  35   1.9990      -0.262452        -7.1417
  36   1.9986      -0.257478        -7.0063
  37   0.0014      -0.026649        -0.7252
  38   0.0009      -0.019678        -0.5355
  39   0.0002       0.006388         0.1738
  40   0.0000       0.029550         0.8041
  41   0.0000       0.041321         1.1244
  42   0.0000       0.042172         1.1475
  43   0.0000       0.050013         1.3609
  44   0.0000       0.066051         1.7973

LOEWDIN ATOMIC CHARGES
----------------------
   0 C :   -0.108820
   1 C :    0.082714
   2 C :    0.062896
   3 C :    0.062226
   4 C :    0.062054
   5 C :    0.076848
   6 C :   -0.923846
   7 H :   -0.043719
   8 H :   -0.055764
   9 H :   -0.056275
  10 H :   -0.056242
  11 H :   -0.053635
  12 O :    0.663050
  13 H :   -0.339643
  14 O :    0.647018
  15 H :   -0.341915
  16 O :    0.661914
  17 H :   -0.338860

  Mayer bond orders larger than 0.100000
B(  0-C ,  1-C ) :   1.2557 B(  0-C ,  5-C ) :   1.2537 B(  0-C ,  6-C ) :   0.8493
B(  1-C ,  2-C ) :   1.3303 B(  1-C ,  7-H ) :   0.9607 B(  2-C ,  3-C ) :   1.3170
B(  2-C ,  8-H ) :   0.9699 B(  3-C ,  4-C ) :   1.3322 B(  3-C ,  9-H ) :   0.9673
B(  4-C ,  5-C ) :   1.3222 B(  4-C , 10-H ) :   0.9708 B(  5-C , 11-H ) :   0.9569
B(  6-C , 12-O ) :   1.0329 B(  6-C , 14-O ) :   1.0848 B(  6-C , 16-O ) :   1.0276
B( 12-O , 13-H ) :   0.9767 B( 14-O , 15-H ) :   0.9649 B( 16-O , 17-H ) :   0.9704

FINAL SINGLE POINT ENERGY      -497.200255454966

DIPOLE MOMENT
-------------
                                X             Y             Z
Electronic contribution:      0.02443       3.03220      -0.33489
Nuclear contribution   :      0.31644      -3.51876       0.56972
                        -----------------------------------------
Total Dipole Moment    :      0.34087      -0.48656       0.23483
                        -----------------------------------------
Magnitude (a.u.)       :      0.63881
Magnitude (Debye)      :      1.62374

Rotational constants in cm-1:     0.093520     0.032173     0.027486
Rotational constants in MHz :  2803.659723   964.517439   824.009769

                             ****ORCA TERMINATED NORMALLY****
TOTAL RUN TIME: 0 days 0 hours 43 minutes 55 seconds 847 msec
