                         Program Version 5.0.4 -  RELEASE  -
|  1> !B3LYP DEF2-SVP OPT FREQ D4 SOSCF
|  2>
|  3> * xyz 1 1
|  4>    C       -3.72465        0.78901        0.04183
|  5>    C       -4.68012       -0.25011        0.26418
|  6>    C       -4.29013       -1.57484        0.17564
|  7>    C       -2.95495       -1.91003       -0.13358
|  8>    C       -2.00606       -0.89203       -0.35528
|  9>    C       -2.37347        0.43978       -0.27168
| 10>    H       -5.71442        0.01410        0.50355
| 11>    H       -5.02287       -2.36664        0.34698
| 12>    H       -2.65602       -2.95936       -0.20143
| 13>    H       -0.97273       -1.15657       -0.59544
| 14>    H       -1.64121        1.23288       -0.44412
| 15>    N       -4.09362        2.08407        0.12686
| 16>    H       -5.04890        2.34803        0.34860
| 17>    H       -3.42626        2.83228       -0.02771
| 18>    N        6.99949        3.51936       -1.36174
| 19>    O        7.19775        4.73474       -1.82264
| 20>    O        6.26241        2.87504       -0.45200
| 21> **                         ****END OF INPUT****
 Total Charge           Charge          ....    1
 Multiplicity           Mult            ....    1
 Number of Electrons    NEL             ....   72
Dispersion correction           -0.020344057
FINAL SINGLE POINT ENERGY      -491.714590008401
Dispersion correction            ... Starting D4
Dispersion correction           -0.020378349
FINAL SINGLE POINT ENERGY      -491.764015216228
Dispersion correction            ... Starting D4
Dispersion correction           -0.020390026
FINAL SINGLE POINT ENERGY      -491.767212597586
Dispersion correction            ... Starting D4
FINAL SINGLE POINT ENERGY      -491.771677466793
FINAL SINGLE POINT ENERGY      -491.771991772450
FINAL SINGLE POINT ENERGY      -491.772107409893
FINAL SINGLE POINT ENERGY      -491.772157816649
FINAL SINGLE POINT ENERGY      -491.772212702701
FINAL SINGLE POINT ENERGY      -491.772270141401
FINAL SINGLE POINT ENERGY      -491.772342085732
FINAL SINGLE POINT ENERGY      -491.773099251805
FINAL SINGLE POINT ENERGY      -491.773134057570
FINAL SINGLE POINT ENERGY      -491.773167885363
FINAL SINGLE POINT ENERGY      -491.773201024202
FINAL SINGLE POINT ENERGY      -491.773228951408
FINAL SINGLE POINT ENERGY      -491.773264927470
FINAL SINGLE POINT ENERGY      -491.773296058770
Dispersion correction           -0.020395724
FINAL SINGLE POINT ENERGY      -491.773326579233
Dispersion correction            ... Starting D4
Dispersion correction           -0.020396071
FINAL SINGLE POINT ENERGY      -491.773326543024
Dispersion correction            ... Starting D4
                    ***********************HURRAY********************

CARTESIAN COORDINATES (ANGSTROEM)
---------------------------------
  C     -4.326880    0.673670    0.077840
  C     -4.967485   -0.568983    0.370307
  C     -4.251851   -1.748699    0.289782
  C     -2.892232   -1.735825   -0.079679
  C     -2.252087   -0.514831   -0.369926
  C     -2.948196    0.677576   -0.295799
  H     -6.022270   -0.574340    0.655579
  H     -4.745226   -2.696826    0.514092
  H     -2.334963   -2.672792   -0.141369
  H     -1.197880   -0.509749   -0.654626
  H     -2.455617    1.626870   -0.519855
  N     -5.016666    1.829333    0.154282
  H     -5.995984    1.841156    0.417824
  H     -4.577476    2.719959   -0.051296
  N      8.715695    3.651276   -1.552049
  O      9.442430    4.556558   -1.430581
  O      7.680927    3.205357   -1.242504

 Multiplicity           Mult            ....    1
 Number of Electrons    NEL             ....   72
 Basis Dimension        Dim             ....  175

ORBITAL ENERGIES
----------------

  NO   OCC          E(Eh)            E(eV)
   0   2.0000     -19.419993      -528.4449
   1   2.0000     -19.419715      -528.4373
   2   2.0000     -14.741368      -401.1330
   3   2.0000     -14.508840      -394.8056
   4   2.0000     -10.387167      -282.6492
   5   2.0000     -10.328184      -281.0442
   6   2.0000     -10.327561      -281.0272
   7   2.0000     -10.327304      -281.0202
   8   2.0000     -10.323337      -280.9123
   9   2.0000     -10.322381      -280.8863
  10   2.0000      -1.450027       -39.4572
  11   2.0000      -1.319062       -35.8935
  12   2.0000      -1.075130       -29.2558
  13   2.0000      -0.968707       -26.3598
  14   2.0000      -0.876185       -23.8422
  15   2.0000      -0.856547       -23.3078
  16   2.0000      -0.797507       -21.7013
  17   2.0000      -0.748972       -20.3806
  18   2.0000      -0.742569       -20.2063
  19   2.0000      -0.741472       -20.1765
  20   2.0000      -0.735832       -20.0230
  21   2.0000      -0.722143       -19.6505
  22   2.0000      -0.669447       -18.2166
  23   2.0000      -0.664939       -18.0939
  24   2.0000      -0.617198       -16.7948
  25   2.0000      -0.572654       -15.5827
  26   2.0000      -0.563584       -15.3359
  27   2.0000      -0.555718       -15.1219
  28   2.0000      -0.542278       -14.7561
  29   2.0000      -0.535455       -14.5705
  30   2.0000      -0.534252       -14.5377
  31   2.0000      -0.495423       -13.4811
  32   2.0000      -0.476779       -12.9738
  33   2.0000      -0.455964       -12.4074
  34   2.0000      -0.391184       -10.6447
  35   2.0000      -0.331064        -9.0087
  36   0.0000      -0.323099        -8.7920
  37   0.0000      -0.227219        -6.1830
  38   0.0000      -0.136874        -3.7245
  39   0.0000      -0.126343        -3.4380
  40   0.0000      -0.071499        -1.9456

MULLIKEN ATOMIC CHARGES
-----------------------
   0 C :    0.048136
   1 C :    0.022525
   2 C :    0.026593
   3 C :    0.056755
   4 C :    0.026101
   5 C :    0.021761
   6 H :    0.009227
   7 H :    0.032818
   8 H :    0.035336
   9 H :    0.027080
  10 H :    0.004405
  11 N :    0.014521
  12 H :    0.154694
  13 H :    0.153092
  14 N :    0.374981
  15 O :    0.000861
  16 O :   -0.008887
Sum of atomic charges:    1.0000000

LOEWDIN ATOMIC CHARGES
----------------------
   0 C :    0.063325
   1 C :   -0.014282
   2 C :    0.013014
   3 C :    0.037662
   4 C :    0.010287
   5 C :   -0.016935
   6 H :    0.042932
   7 H :    0.050140
   8 H :    0.048193
   9 H :    0.047636
  10 H :    0.040893
  11 N :    0.104265
  12 H :    0.103433
  13 H :    0.102482
  14 N :    0.285834
  15 O :    0.045164
  16 O :    0.035958

  Mayer bond orders larger than 0.100000
B(  0-C ,  1-C ) :   1.2030 B(  0-C ,  5-C ) :   1.2037 B(  0-C , 11-N ) :   1.3709
B(  1-C ,  2-C ) :   1.4708 B(  1-C ,  6-H ) :   0.9882 B(  2-C ,  3-C ) :   1.3043
B(  2-C ,  7-H ) :   0.9814 B(  3-C ,  4-C ) :   1.3062 B(  3-C ,  8-H ) :   0.9869
B(  3-C , 14-N ) :   0.1057 B(  4-C ,  5-C ) :   1.4677 B(  4-C ,  9-H ) :   0.9816
B(  5-C , 10-H ) :   0.9878 B( 11-N , 12-H ) :   0.9341 B( 11-N , 13-H ) :   0.9347
B( 11-N , 14-N ) :   0.1115 B( 14-N , 15-O ) :   1.7484 B( 14-N , 16-O ) :   1.7395
B( 15-O , 16-O ) :   0.3543

Dispersion correction           -0.020396239
FINAL SINGLE POINT ENERGY      -491.773326433225

DIPOLE MOMENT
-------------
                                X             Y             Z
Electronic contribution:     27.52006       8.91190      -3.20236
Nuclear contribution   :    -27.18602      -7.80008       3.11414
                        -----------------------------------------
Total Dipole Moment    :      0.33404       1.11182      -0.08822
                        -----------------------------------------
Magnitude (a.u.)       :      1.16427
Magnitude (Debye)      :      2.95933

Dispersion correction in the Hessian             ... Starting D4

VIBRATIONAL FREQUENCIES
-----------------------

Scaling factor for frequencies =  1.000000000  (already applied!)

   0:         0.00 cm**-1
   1:         0.00 cm**-1
   2:         0.00 cm**-1
   3:         0.00 cm**-1
   4:         0.00 cm**-1
   5:         0.00 cm**-1
   6:        -7.40 cm**-1 ***imaginary mode***
   7:         3.28 cm**-1
   8:         4.41 cm**-1
   9:        11.51 cm**-1
  10:        19.32 cm**-1
  11:        23.65 cm**-1
  12:       201.94 cm**-1
  13:       388.10 cm**-1
  14:       394.39 cm**-1
  15:       457.16 cm**-1
  16:       505.49 cm**-1
  17:       515.61 cm**-1
  18:       531.64 cm**-1
  19:       611.43 cm**-1
  20:       634.00 cm**-1
  21:       671.19 cm**-1
  22:       800.40 cm**-1
  23:       819.12 cm**-1
  24:       836.01 cm**-1
  25:       928.70 cm**-1
  26:       995.50 cm**-1
  27:      1005.01 cm**-1
  28:      1022.61 cm**-1
  29:      1027.98 cm**-1
  30:      1029.94 cm**-1
  31:      1122.46 cm**-1
  32:      1173.52 cm**-1
  33:      1191.97 cm**-1
  34:      1350.46 cm**-1
  35:      1366.29 cm**-1
  36:      1385.60 cm**-1
  37:      1397.94 cm**-1
  38:      1500.53 cm**-1
  39:      1523.59 cm**-1
  40:      1565.43 cm**-1
  41:      1631.11 cm**-1
  42:      1666.70 cm**-1
  43:      2025.68 cm**-1
  44:      3189.63 cm**-1
  45:      3190.86 cm**-1
  46:      3203.33 cm**-1
  47:      3209.50 cm**-1
  48:      3218.36 cm**-1
  49:      3566.71 cm**-1
  50:      3688.71 cm**-1

IR SPECTRUM
-----------

 Mode   freq       eps      Int      T**2         TX        TY        TZ
       cm**-1   L/(mol*cm) km/mol    a.u.
----------------------------------------------------------------------------
  7:      3.28   0.000000    0.00  0.000000  ( 0.000000  0.000000  0.000000)
  8:      4.41   0.000000    0.00  0.000000  ( 0.000000  0.000000  0.000000)
  9:     11.51   0.000051    0.26  0.001387  ( 0.034848  0.007937  0.010455)
 10:     19.32   0.000003    0.01  0.000043  ( 0.000096  0.006515 -0.000941)
 11:     23.65   0.000396    2.00  0.005227  (-0.027490  0.031507 -0.058978)
 12:    201.94   0.001396    7.06  0.002158  (-0.011346 -0.004121 -0.044857)
 13:    388.10   0.000453    2.29  0.000364  (-0.015193 -0.010094  0.005594)
 14:    394.39   0.000003    0.02  0.000002  ( 0.000129  0.000068  0.001570)
 15:    457.16   0.033879  171.21  0.023126  (-0.034933 -0.012914 -0.147443)
 16:    505.49   0.002021   10.21  0.001248  ( 0.008131  0.003159  0.034229)
 17:    515.61   0.000084    0.42  0.000051  (-0.002875 -0.000865 -0.006456)
 18:    531.64   0.082083  414.82  0.048181  ( 0.206363  0.071508 -0.021962)
 19:    611.43   0.000003    0.02  0.000002  (-0.000082  0.001128 -0.000569)
 20:    634.00   1.180170  5964.10  0.580897  (-0.720264 -0.239674  0.068362)
 21:    671.19   0.007318   36.98  0.003402  (-0.016536 -0.005843 -0.055631)
 22:    800.40   0.006953   35.14  0.002711  ( 0.013048  0.004659  0.050189)
 23:    819.12   0.000016    0.08  0.000006  (-0.001015 -0.000302 -0.002242)
 24:    836.01   0.003419   17.28  0.001276  ( 0.031135  0.016979 -0.004319)
 25:    928.70   0.000993    5.02  0.000334  ( 0.004503  0.001600  0.017632)
 26:    995.50   0.011400   57.61  0.003574  (-0.058726 -0.008539  0.007213)
 27:   1005.01   0.000001    0.00  0.000000  (-0.000371 -0.000053  0.000135)
 28:   1022.61   0.000007    0.04  0.000002  ( 0.001156  0.000815 -0.000447)
 29:   1027.98   0.000007    0.03  0.000002  ( 0.000248  0.000059  0.001422)
 30:   1029.94   0.002442   12.34  0.000740  (-0.023365 -0.013613  0.002956)
 31:   1122.46   0.001423    7.19  0.000396  ( 0.015576  0.010926 -0.005811)
 32:   1173.52   0.000029    0.15  0.000008  (-0.002754 -0.000277  0.000082)
 33:   1191.97   0.040499  204.67  0.010603  (-0.100390 -0.019427  0.012138)
 34:   1350.46   0.000002    0.01  0.000000  (-0.000499  0.000287 -0.000198)
 35:   1366.29   1.390569  7027.37  0.317610  (-0.537729 -0.156391  0.063237)
 36:   1385.60   0.250348  1265.16  0.056383  (-0.224882 -0.071591  0.026185)
 37:   1397.94   0.000090    0.45  0.000020  (-0.004381 -0.000916  0.000233)
 38:   1500.53   0.001510    7.63  0.000314  ( 0.014135  0.009548 -0.004807)
 39:   1523.59   0.020718  104.70  0.004243  ( 0.055898 -0.032794 -0.006588)
 40:   1565.43   0.000295    1.49  0.000059  ( 0.006117  0.004110 -0.002115)
 41:   1631.11   0.025711  129.93  0.004919  (-0.042518  0.055574  0.004772)
 42:   1666.70   0.115775  585.08  0.021677  (-0.146205 -0.001402  0.017300)
 43:   2025.68   0.064336  325.13  0.009911  ( 0.078192  0.061036 -0.008473)
 44:   3189.63   0.000870    4.40  0.000085  (-0.008247  0.004040  0.000907)
 45:   3190.86   0.000053    0.27  0.000005  ( 0.002111 -0.000807 -0.000244)
 46:   3203.33   0.001556    7.86  0.000152  (-0.012120 -0.001759  0.001270)
 47:   3209.50   0.000001    0.01  0.000000  ( 0.000283 -0.000176 -0.000160)
 48:   3218.36   0.000557    2.82  0.000054  (-0.007029 -0.002026  0.000733)
 49:   3566.71   0.164286  830.24  0.014374  ( 0.117338 -0.020403 -0.013765)
 50:   3688.71   0.013105   66.23  0.001109  (-0.026771 -0.017436  0.009378)

--------------------------
THERMOCHEMISTRY AT 298.15K
--------------------------

Temperature         ... 298.15 K
Pressure            ... 1.00 atm
Total Mass          ... 139.13 AMU

Throughout the following assumptions are being made:
  (1) The electronic state is orbitally nondegenerate
  (2) There are no thermally accessible electronically excited states
  (3) Hindered rotations indicated by low frequency modes are not
      treated as such but are treated as vibrations and this may
      cause some error
  (4) All equations used are the standard statistical mechanics
      equations for an ideal gas
  (5) All vibrations are strictly harmonic

freq.       3.28  E(vib)   ...       0.59
freq.       4.41  E(vib)   ...       0.59
freq.      11.51  E(vib)   ...       0.58
freq.      19.32  E(vib)   ...       0.57
freq.      23.65  E(vib)   ...       0.56
freq.     201.94  E(vib)   ...       0.35
freq.     388.10  E(vib)   ...       0.20
freq.     394.39  E(vib)   ...       0.20
freq.     457.16  E(vib)   ...       0.16
freq.     505.49  E(vib)   ...       0.14
freq.     515.61  E(vib)   ...       0.13
freq.     531.64  E(vib)   ...       0.13
freq.     611.43  E(vib)   ...       0.10
freq.     634.00  E(vib)   ...       0.09
freq.     671.19  E(vib)   ...       0.08
freq.     800.40  E(vib)   ...       0.05
freq.     819.12  E(vib)   ...       0.05
freq.     836.01  E(vib)   ...       0.04
freq.     928.70  E(vib)   ...       0.03
freq.     995.50  E(vib)   ...       0.02
freq.    1005.01  E(vib)   ...       0.02
freq.    1022.61  E(vib)   ...       0.02
freq.    1027.98  E(vib)   ...       0.02
freq.    1029.94  E(vib)   ...       0.02
freq.    1122.46  E(vib)   ...       0.01
freq.    1173.52  E(vib)   ...       0.01
freq.    1191.97  E(vib)   ...       0.01
freq.    1350.46  E(vib)   ...       0.01
freq.    1366.29  E(vib)   ...       0.01
freq.    1385.60  E(vib)   ...       0.00
freq.    1397.94  E(vib)   ...       0.00
freq.    1500.53  E(vib)   ...       0.00
freq.    1523.59  E(vib)   ...       0.00
freq.    1565.43  E(vib)   ...       0.00
freq.    1631.11  E(vib)   ...       0.00
freq.    1666.70  E(vib)   ...       0.00
freq.    2025.68  E(vib)   ...       0.00
freq.    3189.63  E(vib)   ...       0.00
freq.    3190.86  E(vib)   ...       0.00
freq.    3203.33  E(vib)   ...       0.00
freq.    3209.50  E(vib)   ...       0.00
freq.    3218.36  E(vib)   ...       0.00
freq.    3566.71  E(vib)   ...       0.00
freq.    3688.71  E(vib)   ...       0.00

------------
INNER ENERGY
------------

The inner energy is: U= E(el) + E(ZPE) + E(vib) + E(rot) + E(trans)
    E(el)   - is the total energy from the electronic structure calculation
              = E(kin-el) + E(nuc-el) + E(el-el) + E(nuc-nuc)
    E(ZPE)  - the the zero temperature vibrational energy from the frequency calculation
    E(vib)  - the the finite temperature correction to E(ZPE) due to population
              of excited vibrational states
    E(rot)  - is the rotational thermal energy
    E(trans)- is the translational thermal energy

Summary of contributions to the inner energy U:
Electronic energy                ...   -491.77332643 Eh
Zero point energy                ...      0.12668156 Eh      79.49 kcal/mol
Thermal vibrational correction   ...      0.00764081 Eh       4.79 kcal/mol
Thermal rotational correction    ...      0.00141627 Eh       0.89 kcal/mol
Thermal translational correction ...      0.00141627 Eh       0.89 kcal/mol
-----------------------------------------------------------------------
Total thermal energy                   -491.63617152 Eh

Summary of corrections to the electronic energy:
(perhaps to be used in another calculation)
Total thermal correction                  0.01047335 Eh       6.57 kcal/mol
Non-thermal (ZPE) correction              0.12668156 Eh      79.49 kcal/mol
-----------------------------------------------------------------------
Total correction                          0.13715491 Eh      86.07 kcal/mol

--------
ENTHALPY
--------

The enthalpy is H = U + kB*T
                kB is Boltzmann's constant
Total free energy                 ...   -491.63617152 Eh
Thermal Enthalpy correction       ...      0.00094421 Eh       0.59 kcal/mol
-----------------------------------------------------------------------
Total Enthalpy                    ...   -491.63522731 Eh

Note: Only C1 symmetry has been detected, increase convergence thresholds
      if your molecule has a higher symmetry. Symmetry factor of 1.0 is
      used for the rotational entropy correction.

Note: Rotational entropy computed according to Herzberg
Infrared and Raman Spectra, Chapter V,1, Van Nostrand Reinhold, 1945
Point Group:  C1, Symmetry Number:   1
Rotational constants in cm-1:     0.086693     0.003093     0.002990

Vibrational entropy computed according to the QRRHO of S. Grimme
Chem.Eur.J. 2012 18 9955

-------
ENTROPY
-------

The entropy contributions are T*S = T*(S(el)+S(vib)+S(rot)+S(trans))
     S(el)   - electronic entropy
     S(vib)  - vibrational entropy
     S(rot)  - rotational entropy
     S(trans)- translational entropy
The entropies will be listed as multiplied by the temperature to get
units of energy

Electronic entropy                ...      0.00000000 Eh      0.00 kcal/mol
Vibrational entropy               ...      0.01678120 Eh     10.53 kcal/mol
Rotational entropy                ...      0.01613741 Eh     10.13 kcal/mol
Translational entropy             ...      0.01933899 Eh     12.14 kcal/mol
-----------------------------------------------------------------------
Final entropy term                ...      0.05225760 Eh     32.79 kcal/mol

In case the symmetry of your molecule has not been determined correctly
or in case you have a reason to use a different symmetry number we print
out the resulting rotational entropy values for sn=1,12 :
 --------------------------------------------------------
|  sn= 1 | S(rot)=       0.01613741 Eh     10.13 kcal/mol|
|  sn= 2 | S(rot)=       0.01548295 Eh      9.72 kcal/mol|
|  sn= 3 | S(rot)=       0.01510012 Eh      9.48 kcal/mol|
|  sn= 4 | S(rot)=       0.01482850 Eh      9.31 kcal/mol|
|  sn= 5 | S(rot)=       0.01461781 Eh      9.17 kcal/mol|
|  sn= 6 | S(rot)=       0.01444566 Eh      9.06 kcal/mol|
|  sn= 7 | S(rot)=       0.01430012 Eh      8.97 kcal/mol|
|  sn= 8 | S(rot)=       0.01417404 Eh      8.89 kcal/mol|
|  sn= 9 | S(rot)=       0.01406283 Eh      8.82 kcal/mol|
|  sn=10 | S(rot)=       0.01396335 Eh      8.76 kcal/mol|
|  sn=11 | S(rot)=       0.01387336 Eh      8.71 kcal/mol|
|  sn=12 | S(rot)=       0.01379121 Eh      8.65 kcal/mol|
 --------------------------------------------------------

-------------------
GIBBS FREE ENERGY
-------------------

                             ****ORCA TERMINATED NORMALLY****
TOTAL RUN TIME: 0 days 2 hours 44 minutes 41 seconds 204 msec
