                         Program Version 5.0.4 -  RELEASE  -
|  1> !B3LYP/G DEF2-SVP OPT FREQ D4 SOSCF
|  2>
|  3> %geom
|  4> convergence tight
|  5> maxIter 1000
|  6> end
|  7>
|  8> * xyz 1 1
|  9>   C   -5.69833092361994      1.00686092459078      0.33485155073378
| 10>   C   -6.61680458273250      1.67081204129629     -0.51390840449094
| 11>   C   -7.18619273725617      1.02045560106836     -1.58091495155330
| 12>   C   -6.82470599943010     -0.31426466461225     -1.81176612108115
| 13>   C   -5.91745804808162     -1.00999324425869     -1.00318878997674
| 14>   C   -5.36566523100152     -0.34797487006664      0.06423725342932
| 15>   C   -5.07305743438627      1.70840368139421      1.47981034621772
| 16>   H   -5.06527828138158      1.07716392145458      2.37324524966903
| 17>   H   -5.55683733451661      2.65675107330755      1.70319573272173
| 18>   H   -4.01601912953277      1.91136256987490      1.25447618269080
| 19>   H   -6.87155972048808      2.70250277032083     -0.31175910599881
| 20>   H   -7.89767717421053      1.50485388900656     -2.23441149022560
| 21>   H   -5.67120614031689     -2.03725120520009     -1.23094987468862
| 22>   H   -4.66618171327849     -0.85818501679974      0.71352336890359
| 23>   N   -7.42608391142514     -1.01068678627015     -2.94360382798451
| 24>   O   -6.70542290043114     -1.75361261013017     -3.58398045937197
| 25>   O   -8.60498382670229     -0.79503698488568     -3.15976323113312
| 26>   H   -14.69588491120795     -8.94822109009061    -12.00406342786115
| 27> **                         ****END OF INPUT****
 Total Charge           Charge          ....    1
 Multiplicity           Mult            ....    1
 Number of Electrons    NEL             ....   72
Dispersion correction           -0.026626625
FINAL SINGLE POINT ENERGY      -475.744804936313
Dispersion correction            ... Starting D4
Dispersion correction           -0.026499312
FINAL SINGLE POINT ENERGY      -475.748264095636
Dispersion correction            ... Starting D4
Dispersion correction           -0.026456792
FINAL SINGLE POINT ENERGY      -475.749513123293
Dispersion correction            ... Starting D4
FINAL SINGLE POINT ENERGY      -475.750272460110
FINAL SINGLE POINT ENERGY      -475.750752809597
FINAL SINGLE POINT ENERGY      -475.750929923355
FINAL SINGLE POINT ENERGY      -475.750975388957
FINAL SINGLE POINT ENERGY      -475.751011840285
FINAL SINGLE POINT ENERGY      -475.751043934126
FINAL SINGLE POINT ENERGY      -475.751076035996
FINAL SINGLE POINT ENERGY      -475.751109008262
Dispersion correction           -0.026454483
FINAL SINGLE POINT ENERGY      -475.751109356662
Dispersion correction            ... Starting D4
Dispersion correction           -0.026455184
FINAL SINGLE POINT ENERGY      -475.751109447049
Dispersion correction            ... Starting D4
                    ***********************HURRAY********************

CARTESIAN COORDINATES (ANGSTROEM)
---------------------------------
  C     -5.705765    1.002824    0.319421
  C     -6.680896    1.612345   -0.486871
  C     -7.250743    0.939281   -1.565919
  C     -6.836170   -0.363689   -1.836484
  C     -5.871028   -1.003236   -1.056990
  C     -5.313918   -0.313559    0.015428
  C     -5.076811    1.738372    1.472599
  H     -5.032375    1.106426    2.373491
  H     -5.630261    2.655048    1.721565
  H     -4.039799    2.028549    1.231510
  H     -7.000989    2.633123   -0.264348
  H     -8.008072    1.401328   -2.197977
  H     -5.577206   -2.023223   -1.301605
  H     -4.558801   -0.805719    0.633746
  N     -7.434972   -1.085598   -2.971157
  O     -7.058601   -2.229327   -3.178207
  O     -8.273345   -0.499223   -3.638606
  H    -14.509597   -8.609784  -11.724568

 Multiplicity           Mult            ....    1
 Number of Electrons    NEL             ....   72
 Basis Dimension        Dim             ....  180

ORBITAL ENERGIES
----------------

  NO   OCC          E(Eh)            E(eV)
   0   2.0000     -19.197029      -522.3777
   1   2.0000     -19.196986      -522.3765
   2   2.0000     -14.594454      -397.1353
   3   2.0000     -10.282372      -279.7976
   4   2.0000     -10.259416      -279.1729
   5   2.0000     -10.253730      -279.0182
   6   2.0000     -10.253708      -279.0176
   7   2.0000     -10.247257      -278.8420
   8   2.0000     -10.247142      -278.8389
   9   2.0000     -10.238218      -278.5961
  10   2.0000      -1.257436       -34.2166
  11   2.0000      -1.082907       -29.4674
  12   2.0000      -0.920733       -25.0544
  13   2.0000      -0.849025       -23.1031
  14   2.0000      -0.800406       -21.7801
  15   2.0000      -0.772713       -21.0266
  16   2.0000      -0.693703       -18.8766
  17   2.0000      -0.665441       -18.1076
  18   2.0000      -0.620635       -16.8883
  19   2.0000      -0.591167       -16.0865
  20   2.0000      -0.576186       -15.6788
  21   2.0000      -0.548593       -14.9280
  22   2.0000      -0.521274       -14.1846
  23   2.0000      -0.519279       -14.1303
  24   2.0000      -0.496140       -13.5007
  25   2.0000      -0.482393       -13.1266
  26   2.0000      -0.472317       -12.8524
  27   2.0000      -0.438374       -11.9288
  28   2.0000      -0.419636       -11.4189
  29   2.0000      -0.416937       -11.3454
  30   2.0000      -0.401531       -10.9262
  31   2.0000      -0.348809        -9.4916
  32   2.0000      -0.346373        -9.4253
  33   2.0000      -0.329536        -8.9671
  34   2.0000      -0.316132        -8.6024
  35   2.0000      -0.309898        -8.4328
  36   0.0000      -0.496591       -13.5129
  37   0.0000      -0.125077        -3.4035
  38   0.0000      -0.068021        -1.8509
  39   0.0000      -0.038617        -1.0508
  40   0.0000       0.017940         0.4882

MULLIKEN ATOMIC CHARGES
-----------------------
   0 C :   -0.014859
   1 C :   -0.011828
   2 C :   -0.007505
   3 C :    0.166253
   4 C :   -0.008287
   5 C :   -0.012616
   6 C :    0.074183
   7 H :    0.032676
   8 H :    0.019221
   9 H :    0.043281
  10 H :   -0.012543
  11 H :    0.004973
  12 H :    0.005352
  13 H :   -0.013201
  14 N :    0.231962
  15 O :   -0.248820
  16 O :   -0.248243
  17 H :    1.000000
Sum of atomic charges:    1.0000000

LOEWDIN ATOMIC CHARGES
----------------------
   0 C :    0.001269
   1 C :   -0.020756
   2 C :    0.001152
   3 C :   -0.032628
   4 C :    0.000275
   5 C :   -0.018239
   6 C :   -0.042759
   7 H :    0.038727
   8 H :    0.032705
   9 H :    0.044095
  10 H :    0.032026
  11 H :    0.040596
  12 H :    0.040462
  13 H :    0.032182
  14 N :    0.276510
  15 O :   -0.212981
  16 O :   -0.212636
  17 H :    1.000000

  Mayer bond orders larger than 0.100000
B(  0-C ,  1-C ) :   1.3760 B(  0-C ,  5-C ) :   1.3611 B(  0-C ,  6-C ) :   1.0673
B(  1-C ,  2-C ) :   1.3466 B(  1-C , 10-H ) :   0.9844 B(  2-C ,  3-C ) :   1.3758
B(  2-C , 11-H ) :   0.9834 B(  3-C ,  4-C ) :   1.3651 B(  3-C , 14-N ) :   0.8635
B(  4-C ,  5-C ) :   1.3609 B(  4-C , 12-H ) :   0.9834 B(  5-C , 13-H ) :   0.9880
B(  6-C ,  7-H ) :   0.9549 B(  6-C ,  8-H ) :   0.9592 B(  6-C ,  9-H ) :   0.9499
B( 14-N , 15-O ) :   1.5441 B( 14-N , 16-O ) :   1.5453 B( 15-O , 16-O ) :   0.2760

Dispersion correction           -0.026455187
FINAL SINGLE POINT ENERGY      -475.751109448263

DIPOLE MOMENT
-------------
                                X             Y             Z
Electronic contribution:    -12.78422     -14.36036     -19.55092
Nuclear contribution   :     -1.18257      -0.62744       1.75037
                        -----------------------------------------
Total Dipole Moment    :    -13.96679     -14.98780     -17.80055
                        -----------------------------------------
Magnitude (a.u.)       :     27.13973
Magnitude (Debye)      :     68.98371

Dispersion correction in the Hessian             ... Starting D4

VIBRATIONAL FREQUENCIES
-----------------------

Scaling factor for frequencies =  1.000000000  (already applied!)

   0:         0.00 cm**-1
   1:         0.00 cm**-1
   2:         0.00 cm**-1
   3:         0.00 cm**-1
   4:         0.00 cm**-1
   5:         0.00 cm**-1
   6:       -24.08 cm**-1 ***imaginary mode***
   7:         2.23 cm**-1
   8:        16.03 cm**-1
   9:        16.44 cm**-1
  10:        59.93 cm**-1
  11:       110.48 cm**-1
  12:       223.99 cm**-1
  13:       286.21 cm**-1
  14:       361.55 cm**-1
  15:       366.84 cm**-1
  16:       424.94 cm**-1
  17:       488.78 cm**-1
  18:       541.37 cm**-1
  19:       632.48 cm**-1
  20:       646.27 cm**-1
  21:       709.41 cm**-1
  22:       756.03 cm**-1
  23:       807.03 cm**-1
  24:       858.65 cm**-1
  25:       860.67 cm**-1
  26:       889.49 cm**-1
  27:       999.78 cm**-1
  28:      1003.35 cm**-1
  29:      1014.20 cm**-1
  30:      1028.06 cm**-1
  31:      1052.86 cm**-1
  32:      1121.27 cm**-1
  33:      1131.77 cm**-1
  34:      1193.84 cm**-1
  35:      1239.39 cm**-1
  36:      1310.34 cm**-1
  37:      1380.40 cm**-1
  38:      1397.07 cm**-1
  39:      1422.36 cm**-1
  40:      1435.65 cm**-1
  41:      1458.45 cm**-1
  42:      1472.10 cm**-1
  43:      1529.15 cm**-1
  44:      1634.37 cm**-1
  45:      1662.38 cm**-1
  46:      1691.74 cm**-1
  47:      3031.09 cm**-1
  48:      3101.38 cm**-1
  49:      3134.20 cm**-1
  50:      3183.64 cm**-1
  51:      3187.43 cm**-1
  52:      3235.37 cm**-1
  53:      3235.51 cm**-1

IR SPECTRUM
-----------

 Mode   freq       eps      Int      T**2         TX        TY        TZ
       cm**-1   L/(mol*cm) km/mol    a.u.
----------------------------------------------------------------------------
  7:      2.23   0.000000    0.00  0.000000  ( 0.000000  0.000000  0.000000)
  8:     16.03   0.144204  728.75  2.806747  ( 0.977817 -1.315632  0.346029)
  9:     16.44   0.143922  727.32  2.732331  (-0.968168 -0.386733  1.282739)
 10:     59.93   0.000001    0.01  0.000007  ( 0.001635 -0.000416 -0.002124)
 11:    110.48   0.000176    0.89  0.000498  (-0.014459 -0.007877  0.015065)
 12:    223.99   0.000184    0.93  0.000256  (-0.008684  0.012969 -0.003532)
 13:    286.21   0.000763    3.86  0.000832  (-0.020726 -0.009054  0.017915)
 14:    361.55   0.000084    0.43  0.000073  (-0.001965  0.007983  0.002268)
 15:    366.84   0.000264    1.34  0.000225  (-0.007810 -0.005039 -0.011762)
 16:    424.94   0.000001    0.01  0.000001  ( 0.000935 -0.000059 -0.000352)
 17:    488.78   0.001260    6.37  0.000805  ( 0.020805  0.010827 -0.015956)
 18:    541.37   0.000276    1.39  0.000159  (-0.007724  0.009417 -0.003267)
 19:    632.48   0.000846    4.27  0.000417  ( 0.008093  0.008901  0.016511)
 20:    646.27   0.000096    0.48  0.000046  ( 0.003377 -0.005890  0.000383)
 21:    709.41   0.001237    6.25  0.000544  (-0.016967 -0.008461  0.013591)
 22:    756.03   0.006014   30.39  0.002482  (-0.035552 -0.017285  0.030326)
 23:    807.03   0.001277    6.45  0.000494  ( 0.008078  0.011036  0.017510)
 24:    858.65   0.000323    1.63  0.000118  (-0.006779 -0.003228  0.007819)
 25:    860.67   0.002542   12.85  0.000922  (-0.019893 -0.008480  0.021306)
 26:    889.49   0.007947   40.16  0.002788  ( 0.022329  0.026004  0.040168)
 27:    999.78   0.000587    2.96  0.000183  ( 0.005233  0.009187  0.008445)
 28:   1003.35   0.000438    2.22  0.000136  (-0.009541 -0.005192  0.004287)
 29:   1014.20   0.000003    0.02  0.000001  (-0.000848  0.000258  0.000501)
 30:   1028.06   0.000678    3.42  0.000206  (-0.004599 -0.007180 -0.011532)
 31:   1052.86   0.001749    8.84  0.000519  (-0.018719 -0.012962 -0.000335)
 32:   1121.27   0.002135   10.79  0.000594  (-0.015675  0.016205 -0.009261)
 33:   1131.77   0.009825   49.65  0.002709  (-0.020262 -0.026312 -0.040076)
 34:   1193.84   0.000040    0.20  0.000010  (-0.001602 -0.001268 -0.002501)
 35:   1239.39   0.000699    3.53  0.000176  ( 0.006402  0.007024  0.009257)
 36:   1310.34   0.000142    0.72  0.000034  (-0.004014  0.002251 -0.003562)
 37:   1380.40   0.002111   10.67  0.000477  (-0.015043  0.012151 -0.010165)
 38:   1397.07   0.000055    0.28  0.000012  (-0.001524 -0.001745  0.002616)
 39:   1422.36   0.071564  361.65  0.015701  ( 0.051214  0.061975  0.096111)
 40:   1435.65   0.000254    1.28  0.000055  (-0.005864 -0.001369 -0.004343)
 41:   1458.45   0.001469    7.42  0.000314  ( 0.010068  0.007935 -0.012247)
 42:   1472.10   0.001485    7.51  0.000315  ( 0.011255 -0.013663  0.001217)
 43:   1529.15   0.003260   16.47  0.000665  ( 0.011393  0.011958  0.019810)
 44:   1634.37   0.014307   72.30  0.002732  ( 0.029219 -0.041941  0.010907)
 45:   1662.38   0.007060   35.68  0.001325  ( 0.014632  0.018605  0.027659)
 46:   1691.74   0.030935  156.33  0.005706  (-0.042628  0.060116 -0.016596)
 47:   3031.09   0.002082   10.52  0.000214  (-0.007380 -0.007257 -0.010353)
 48:   3101.38   0.001538    7.77  0.000155  (-0.005884 -0.001635  0.010837)
 49:   3134.20   0.001653    8.36  0.000165  ( 0.004801 -0.011848 -0.001099)
 50:   3183.64   0.001249    6.31  0.000122  ( 0.007626 -0.004739  0.006470)
 51:   3187.43   0.001209    6.11  0.000118  (-0.001877  0.010012  0.003819)
 52:   3235.37   0.000305    1.54  0.000029  (-0.002527  0.004792 -0.000194)
 53:   3235.51   0.000536    2.71  0.000052  ( 0.003391  0.002740  0.005720)

--------------------------
THERMOCHEMISTRY AT 298.15K
--------------------------

Temperature         ... 298.15 K
Pressure            ... 1.00 atm
Total Mass          ... 138.15 AMU

Throughout the following assumptions are being made:
  (1) The electronic state is orbitally nondegenerate
  (2) There are no thermally accessible electronically excited states
  (3) Hindered rotations indicated by low frequency modes are not
      treated as such but are treated as vibrations and this may
      cause some error
  (4) All equations used are the standard statistical mechanics
      equations for an ideal gas
  (5) All vibrations are strictly harmonic

freq.       2.23  E(vib)   ...       0.59
freq.      16.03  E(vib)   ...       0.57
freq.      16.44  E(vib)   ...       0.57
freq.      59.93  E(vib)   ...       0.51
freq.     110.48  E(vib)   ...       0.45
freq.     223.99  E(vib)   ...       0.33
freq.     286.21  E(vib)   ...       0.27
freq.     361.55  E(vib)   ...       0.22
freq.     366.84  E(vib)   ...       0.22
freq.     424.94  E(vib)   ...       0.18
freq.     488.78  E(vib)   ...       0.15
freq.     541.37  E(vib)   ...       0.12
freq.     632.48  E(vib)   ...       0.09
freq.     646.27  E(vib)   ...       0.09
freq.     709.41  E(vib)   ...       0.07
freq.     756.03  E(vib)   ...       0.06
freq.     807.03  E(vib)   ...       0.05
freq.     858.65  E(vib)   ...       0.04
freq.     860.67  E(vib)   ...       0.04
freq.     889.49  E(vib)   ...       0.04
freq.     999.78  E(vib)   ...       0.02
freq.    1003.35  E(vib)   ...       0.02
freq.    1014.20  E(vib)   ...       0.02
freq.    1028.06  E(vib)   ...       0.02
freq.    1052.86  E(vib)   ...       0.02
freq.    1121.27  E(vib)   ...       0.01
freq.    1131.77  E(vib)   ...       0.01
freq.    1193.84  E(vib)   ...       0.01
freq.    1239.39  E(vib)   ...       0.01
freq.    1310.34  E(vib)   ...       0.01
freq.    1380.40  E(vib)   ...       0.01
freq.    1397.07  E(vib)   ...       0.00
freq.    1422.36  E(vib)   ...       0.00
freq.    1435.65  E(vib)   ...       0.00
freq.    1458.45  E(vib)   ...       0.00
freq.    1472.10  E(vib)   ...       0.00
freq.    1529.15  E(vib)   ...       0.00
freq.    1634.37  E(vib)   ...       0.00
freq.    1662.38  E(vib)   ...       0.00
freq.    1691.74  E(vib)   ...       0.00
freq.    3031.09  E(vib)   ...       0.00
freq.    3101.38  E(vib)   ...       0.00
freq.    3134.20  E(vib)   ...       0.00
freq.    3183.64  E(vib)   ...       0.00
freq.    3187.43  E(vib)   ...       0.00
freq.    3235.37  E(vib)   ...       0.00
freq.    3235.51  E(vib)   ...       0.00

------------
INNER ENERGY
------------

The inner energy is: U= E(el) + E(ZPE) + E(vib) + E(rot) + E(trans)
    E(el)   - is the total energy from the electronic structure calculation
              = E(kin-el) + E(nuc-el) + E(el-el) + E(nuc-nuc)
    E(ZPE)  - the the zero temperature vibrational energy from the frequency calculation
    E(vib)  - the the finite temperature correction to E(ZPE) due to population
              of excited vibrational states
    E(rot)  - is the rotational thermal energy
    E(trans)- is the translational thermal energy

Summary of contributions to the inner energy U:
Electronic energy                ...   -475.75110945 Eh
Zero point energy                ...      0.13064372 Eh      81.98 kcal/mol
Thermal vibrational correction   ...      0.00769970 Eh       4.83 kcal/mol
Thermal rotational correction    ...      0.00141627 Eh       0.89 kcal/mol
Thermal translational correction ...      0.00141627 Eh       0.89 kcal/mol
-----------------------------------------------------------------------
Total thermal energy                   -475.60993349 Eh

Summary of corrections to the electronic energy:
(perhaps to be used in another calculation)
Total thermal correction                  0.01053224 Eh       6.61 kcal/mol
Non-thermal (ZPE) correction              0.13064372 Eh      81.98 kcal/mol
-----------------------------------------------------------------------
Total correction                          0.14117596 Eh      88.59 kcal/mol

--------
ENTHALPY
--------

The enthalpy is H = U + kB*T
                kB is Boltzmann's constant
Total free energy                 ...   -475.60993349 Eh
Thermal Enthalpy correction       ...      0.00094421 Eh       0.59 kcal/mol
-----------------------------------------------------------------------
Total Enthalpy                    ...   -475.60898928 Eh

Note: Only C1 symmetry has been detected, increase convergence thresholds
      if your molecule has a higher symmetry. Symmetry factor of 1.0 is
      used for the rotational entropy correction.

Note: Rotational entropy computed according to Herzberg
Infrared and Raman Spectra, Chapter V,1, Van Nostrand Reinhold, 1945
Point Group:  C1, Symmetry Number:   1
Rotational constants in cm-1:     0.125531     0.019468     0.017055

Vibrational entropy computed according to the QRRHO of S. Grimme
Chem.Eur.J. 2012 18 9955

-------
ENTROPY
-------

The entropy contributions are T*S = T*(S(el)+S(vib)+S(rot)+S(trans))
     S(el)   - electronic entropy
     S(vib)  - vibrational entropy
     S(rot)  - rotational entropy
     S(trans)- translational entropy
The entropies will be listed as multiplied by the temperature to get
units of energy

Electronic entropy                ...      0.00000000 Eh      0.00 kcal/mol
Vibrational entropy               ...      0.01570289 Eh      9.85 kcal/mol
Rotational entropy                ...      0.01427207 Eh      8.96 kcal/mol
Translational entropy             ...      0.01932890 Eh     12.13 kcal/mol
-----------------------------------------------------------------------
Final entropy term                ...      0.04930385 Eh     30.94 kcal/mol

In case the symmetry of your molecule has not been determined correctly
or in case you have a reason to use a different symmetry number we print
out the resulting rotational entropy values for sn=1,12 :
 --------------------------------------------------------
|  sn= 1 | S(rot)=       0.01427207 Eh      8.96 kcal/mol|
|  sn= 2 | S(rot)=       0.01361761 Eh      8.55 kcal/mol|
|  sn= 3 | S(rot)=       0.01323478 Eh      8.30 kcal/mol|
|  sn= 4 | S(rot)=       0.01296315 Eh      8.13 kcal/mol|
|  sn= 5 | S(rot)=       0.01275247 Eh      8.00 kcal/mol|
|  sn= 6 | S(rot)=       0.01258032 Eh      7.89 kcal/mol|
|  sn= 7 | S(rot)=       0.01243478 Eh      7.80 kcal/mol|
|  sn= 8 | S(rot)=       0.01230870 Eh      7.72 kcal/mol|
|  sn= 9 | S(rot)=       0.01219749 Eh      7.65 kcal/mol|
|  sn=10 | S(rot)=       0.01209801 Eh      7.59 kcal/mol|
|  sn=11 | S(rot)=       0.01200802 Eh      7.54 kcal/mol|
|  sn=12 | S(rot)=       0.01192587 Eh      7.48 kcal/mol|
 --------------------------------------------------------

-------------------

                             ****ORCA TERMINATED NORMALLY****
TOTAL RUN TIME: 0 days 1 hours 3 minutes 29 seconds 785 msec
