                         Program Version 5.0.4 -  RELEASE  -
|  1> !B3LYP DEF2-SVP OPT FREQ D4 SOSCf
|  2>
|  3> %geom
|  4> maxIter 1000
|  5> end
|  6>
|  7> * xyz 1 1
|  8>    C       -2.84933        1.38692        0.34220
|  9>    C       -2.98115        0.81950       -0.86955
| 10>    C       -1.87145        0.01777       -1.44220
| 11>    C       -0.77009       -0.29539       -0.70850
| 12>    C       -0.59616        0.45114        0.58038
| 13>    C       -1.57840        1.21716        1.08552
| 14>    H       -3.88844        0.95927       -1.44961
| 15>    H       -1.98258       -0.33390       -2.46402
| 16>    H       -1.08773       -1.25827       -0.31234
| 17>    H        0.33020        0.35705        1.13926
| 18>    H       -1.43277        1.72427        2.03446
| 19>    N       -3.89674        2.17070        0.89234
| 20>    H       -4.78124        2.30787        0.38112
| 21>    H       -3.78580        2.61404        1.81568
| 22>    N        0.40770       -0.71429       -1.41548
| 23>    O        0.33864       -1.11812       -2.53853
| 24>    O        1.46653       -0.72502       -0.86261
| 25> **                         ****END OF INPUT****
 Total Charge           Charge          ....    1
 Multiplicity           Mult            ....    1
 Number of Electrons    NEL             ....   72
Dispersion correction           -0.025938813
FINAL SINGLE POINT ENERGY      -491.773547691670
Dispersion correction            ... Starting D4
Dispersion correction           -0.026011198
FINAL SINGLE POINT ENERGY      -491.814701120578
Dispersion correction            ... Starting D4
Dispersion correction           -0.026098001
FINAL SINGLE POINT ENERGY      -491.825887251286
Dispersion correction            ... Starting D4
FINAL SINGLE POINT ENERGY      -491.828610380903
FINAL SINGLE POINT ENERGY      -491.829750152496
FINAL SINGLE POINT ENERGY      -491.830059198242
FINAL SINGLE POINT ENERGY      -491.830675679095
FINAL SINGLE POINT ENERGY      -491.830934013867
FINAL SINGLE POINT ENERGY      -491.831058087016
FINAL SINGLE POINT ENERGY      -491.831092885540
Dispersion correction           -0.026090236
FINAL SINGLE POINT ENERGY      -491.831100661280
Dispersion correction            ... Starting D4
Dispersion correction           -0.026086435
FINAL SINGLE POINT ENERGY      -491.831103001800
Dispersion correction            ... Starting D4
                    ***********************HURRAY********************

CARTESIAN COORDINATES (ANGSTROEM)
---------------------------------
  C     -2.810445    1.400662    0.350761
  C     -2.998384    0.728635   -0.918217
  C     -2.068110   -0.137826   -1.373388
  C     -0.869446   -0.485562   -0.569368
  C     -0.679966    0.287409    0.683752
  C     -1.615886    1.152052    1.130526
  H     -3.889992    0.951830   -1.509380
  H     -2.177349   -0.626687   -2.344079
  H     -0.925141   -1.564148   -0.308841
  H      0.242736    0.115743    1.242657
  H     -1.474553    1.691816    2.070119
  N     -3.712097    2.257331    0.782467
  H     -4.553889    2.460464    0.246986
  H     -3.597218    2.753089    1.664327
  N      0.433251   -0.458450   -1.453140
  O      0.271063   -0.656468   -2.631228
  O      1.466616   -0.289189   -0.855835

 Multiplicity           Mult            ....    1
 Number of Electrons    NEL             ....   72
 Basis Dimension        Dim             ....  175

ORBITAL ENERGIES
----------------

  NO   OCC          E(Eh)            E(eV)
   0   2.0000     -19.323556      -525.8207
   1   2.0000     -19.323528      -525.8199
   2   2.0000     -14.717950      -400.4958
   3   2.0000     -14.589079      -396.9890
   4   2.0000     -10.480982      -285.2020
   5   2.0000     -10.431699      -283.8610
   6   2.0000     -10.410011      -283.2708
   7   2.0000     -10.409978      -283.2699
   8   2.0000     -10.397923      -282.9419
   9   2.0000     -10.397870      -282.9404
  10   2.0000      -1.385900       -37.7123
  11   2.0000      -1.219293       -33.1787
  12   2.0000      -1.161894       -31.6168
  13   2.0000      -1.052683       -28.6450
  14   2.0000      -0.960635       -26.1402
  15   2.0000      -0.957621       -26.0582
  16   2.0000      -0.859185       -23.3796
  17   2.0000      -0.823774       -22.4160
  18   2.0000      -0.782319       -21.2880
  19   2.0000      -0.746826       -20.3222
  20   2.0000      -0.738801       -20.1038
  21   2.0000      -0.719475       -19.5779
  22   2.0000      -0.704913       -19.1817
  23   2.0000      -0.663312       -18.0496
  24   2.0000      -0.662804       -18.0358
  25   2.0000      -0.642701       -17.4888
  26   2.0000      -0.632452       -17.2099
  27   2.0000      -0.626003       -17.0344
  28   2.0000      -0.611686       -16.6448
  29   2.0000      -0.585980       -15.9453
  30   2.0000      -0.542895       -14.7729
  31   2.0000      -0.490884       -13.3576
  32   2.0000      -0.480605       -13.0779
  33   2.0000      -0.467030       -12.7085
  34   2.0000      -0.451345       -12.2817
  35   2.0000      -0.449711       -12.2372
  36   0.0000      -0.287905        -7.8343
  37   0.0000      -0.212917        -5.7938
  38   0.0000      -0.202805        -5.5186
  39   0.0000      -0.126954        -3.4546
  40   0.0000      -0.117485        -3.1969

MULLIKEN ATOMIC CHARGES
-----------------------
   0 C :    0.045368
   1 C :    0.051474
   2 C :   -0.001337
   3 C :    0.171313
   4 C :   -0.001909
   5 C :    0.051352
   6 H :    0.039053
   7 H :    0.089666
   8 H :    0.131622
   9 H :    0.089760
  10 H :    0.039029
  11 N :    0.064236
  12 H :    0.178627
  13 H :    0.178777
  14 N :    0.203557
  15 O :   -0.165245
  16 O :   -0.165341
Sum of atomic charges:    1.0000000

LOEWDIN ATOMIC CHARGES
----------------------
   0 C :    0.130446
   1 C :   -0.026536
   2 C :    0.085394
   3 C :    0.005710
   4 C :    0.085347
   5 C :   -0.026581
   6 H :    0.058849
   7 H :    0.068108
   8 H :    0.103218
   9 H :    0.068116
  10 H :    0.058841
  11 N :    0.151286
  12 H :    0.121449
  13 H :    0.121486
  14 N :    0.272746
  15 O :   -0.138947
  16 O :   -0.138933

  Mayer bond orders larger than 0.100000
B(  0-C ,  1-C ) :   1.0969 B(  0-C ,  5-C ) :   1.0971 B(  0-C , 11-N ) :   1.5690
B(  1-C ,  2-C ) :   1.7115 B(  1-C ,  6-H ) :   0.9859 B(  2-C ,  3-C ) :   1.0200
B(  2-C ,  7-H ) :   0.9561 B(  3-C ,  4-C ) :   1.0197 B(  3-C ,  8-H ) :   0.8352
B(  3-C , 14-N ) :   0.7479 B(  4-C ,  5-C ) :   1.7116 B(  4-C ,  9-H ) :   0.9562
B(  5-C , 10-H ) :   0.9857 B( 11-N , 12-H ) :   0.9237 B( 11-N , 13-H ) :   0.9237
B( 14-N , 15-O ) :   1.5925 B( 14-N , 16-O ) :   1.5924 B( 15-O , 16-O ) :   0.2929

Dispersion correction           -0.026084434
FINAL SINGLE POINT ENERGY      -491.831103818483

DIPOLE MOMENT
-------------
                                X             Y             Z
Electronic contribution:      4.19709      -1.59885      -2.50116
Nuclear contribution   :     -7.41175       2.98549       4.38277
                        -----------------------------------------
Total Dipole Moment    :     -3.21467       1.38664       1.88161
                        -----------------------------------------
Magnitude (a.u.)       :      3.97458
Magnitude (Debye)      :     10.10258

Dispersion correction in the Hessian             ... Starting D4

VIBRATIONAL FREQUENCIES
-----------------------

Scaling factor for frequencies =  1.000000000  (already applied!)

   0:         0.00 cm**-1
   1:         0.00 cm**-1
   2:         0.00 cm**-1
   3:         0.00 cm**-1
   4:         0.00 cm**-1
   5:         0.00 cm**-1
   6:        32.59 cm**-1
   7:        63.98 cm**-1
   8:       210.46 cm**-1
   9:       210.84 cm**-1
  10:       346.64 cm**-1
  11:       376.90 cm**-1
  12:       394.62 cm**-1
  13:       494.41 cm**-1
  14:       501.11 cm**-1
  15:       588.16 cm**-1
  16:       602.94 cm**-1
  17:       643.11 cm**-1
  18:       645.88 cm**-1
  19:       691.19 cm**-1
  20:       804.06 cm**-1
  21:       809.18 cm**-1
  22:       824.10 cm**-1
  23:       861.55 cm**-1
  24:       895.61 cm**-1
  25:       913.89 cm**-1
  26:       974.39 cm**-1
  27:      1004.41 cm**-1
  28:      1033.57 cm**-1
  29:      1034.16 cm**-1
  30:      1092.39 cm**-1
  31:      1158.60 cm**-1
  32:      1162.66 cm**-1
  33:      1207.53 cm**-1
  34:      1321.87 cm**-1
  35:      1381.84 cm**-1
  36:      1395.24 cm**-1
  37:      1429.92 cm**-1
  38:      1488.68 cm**-1
  39:      1547.21 cm**-1
  40:      1637.19 cm**-1
  41:      1677.72 cm**-1
  42:      1720.04 cm**-1
  43:      1764.02 cm**-1
  44:      2993.48 cm**-1
  45:      3195.75 cm**-1
  46:      3196.59 cm**-1
  47:      3221.01 cm**-1
  48:      3222.25 cm**-1
  49:      3524.63 cm**-1
  50:      3639.87 cm**-1

IR SPECTRUM
-----------

 Mode   freq       eps      Int      T**2         TX        TY        TZ
       cm**-1   L/(mol*cm) km/mol    a.u.
----------------------------------------------------------------------------
  6:     32.59   0.000012    0.06  0.000115  (-0.007576 -0.000749 -0.007564)
  7:     63.98   0.000608    3.07  0.002965  ( 0.043935 -0.018977 -0.025975)
  8:    210.46   0.000340    1.72  0.000504  ( 0.011279 -0.000071  0.019403)
  9:    210.84   0.001031    5.21  0.001526  ( 0.009272  0.036341 -0.010924)
 10:    346.64   0.000120    0.61  0.000108  (-0.003612  0.009754  0.000414)
 11:    376.90   0.000008    0.04  0.000007  (-0.001473 -0.000399 -0.002080)
 12:    394.62   0.000104    0.52  0.000082  (-0.005009 -0.001544 -0.007376)
 13:    494.41   0.001439    7.27  0.000908  ( 0.018885  0.017024 -0.016171)
 14:    501.11   0.000241    1.22  0.000150  (-0.006728 -0.002054 -0.010033)
 15:    588.16   0.001445    7.30  0.000766  (-0.015813 -0.017592  0.014385)
 16:    602.94   0.000637    3.22  0.000330  (-0.010104 -0.003193 -0.014744)
 17:    643.11   0.015957   80.64  0.007743  ( 0.047722  0.059107 -0.044407)
 18:    645.88   0.000002    0.01  0.000001  ( 0.000874  0.000649  0.000112)
 19:    691.19   0.021434  108.32  0.009677  (-0.045711 -0.073892  0.046123)
 20:    804.06   0.000109    0.55  0.000042  ( 0.003765  0.001014  0.005189)
 21:    809.18   0.006820   34.47  0.002630  ( 0.041447 -0.017991 -0.024266)
 22:    824.10   0.003248   16.41  0.001230  (-0.018738  0.028885  0.006673)
 23:    861.55   0.021473  108.52  0.007778  (-0.069399 -0.019532  0.050795)
 24:    895.61   0.005036   25.45  0.001755  ( 0.005885 -0.041219  0.004577)
 25:    913.89   0.015770   79.69  0.005385  ( 0.061066 -0.013573 -0.038362)
 26:    974.39   0.004553   23.01  0.001458  ( 0.030088 -0.016316 -0.016930)
 27:   1004.41   0.000396    2.00  0.000123  ( 0.006061  0.001862  0.009094)
 28:   1033.57   0.000209    1.05  0.000063  ( 0.004127  0.001521  0.006604)
 29:   1034.16   0.001193    6.03  0.000360  ( 0.013991 -0.010678 -0.007092)
 30:   1092.39   0.000676    3.42  0.000193  (-0.007649 -0.002321 -0.011367)
 31:   1158.60   0.001551    7.84  0.000418  ( 0.011500  0.003364  0.016562)
 32:   1162.66   0.011771   59.48  0.003159  ( 0.046530 -0.012722 -0.028851)
 33:   1207.53   0.003056   15.45  0.000790  ( 0.017291 -0.020877 -0.007417)
 34:   1321.87   0.001029    5.20  0.000243  (-0.008666 -0.002595 -0.012691)
 35:   1381.84   0.016926   85.54  0.003823  ( 0.051437 -0.011737 -0.032234)
 36:   1395.24   0.000020    0.10  0.000005  ( 0.001416  0.000302  0.001553)
 37:   1429.92   0.040944  206.92  0.008936  (-0.077905  0.024655  0.047524)
 38:   1488.68   0.005117   25.86  0.001073  (-0.018083 -0.005538 -0.026740)
 39:   1547.21   0.004550   22.99  0.000918  (-0.022333  0.016935  0.011493)
 40:   1637.19   0.003415   17.26  0.000651  (-0.014010 -0.004339 -0.020876)
 41:   1677.72   0.026322  133.02  0.004896  (-0.048771  0.044119  0.023891)
 42:   1720.04   0.075109  379.57  0.013627  ( 0.080653 -0.074899 -0.038887)
 43:   1764.02   0.053393  269.82  0.009445  ( 0.053527  0.016422  0.079439)
 44:   2993.48   0.005740   29.01  0.000598  (-0.002141  0.024110 -0.003538)
 45:   3195.75   0.000176    0.89  0.000017  ( 0.003339 -0.000551  0.002393)
 46:   3196.59   0.000392    1.98  0.000038  (-0.003665  0.003946  0.003038)
 47:   3221.01   0.004855   24.53  0.000470  ( 0.013560  0.002492  0.016742)
 48:   3222.25   0.002470   12.48  0.000239  ( 0.009629 -0.008465 -0.008653)
 49:   3524.63   0.064839  327.67  0.005741  ( 0.052932 -0.047587 -0.025968)
 50:   3639.87   0.022030  111.33  0.001889  ( 0.024030  0.007257  0.035478)

--------------------------
THERMOCHEMISTRY AT 298.15K
--------------------------

Temperature         ... 298.15 K
Pressure            ... 1.00 atm
Total Mass          ... 139.13 AMU

Throughout the following assumptions are being made:
  (1) The electronic state is orbitally nondegenerate
  (2) There are no thermally accessible electronically excited states
  (3) Hindered rotations indicated by low frequency modes are not
      treated as such but are treated as vibrations and this may
      cause some error
  (4) All equations used are the standard statistical mechanics
      equations for an ideal gas
  (5) All vibrations are strictly harmonic

freq.      32.59  E(vib)   ...       0.55
freq.      63.98  E(vib)   ...       0.51
freq.     210.46  E(vib)   ...       0.34
freq.     210.84  E(vib)   ...       0.34
freq.     346.64  E(vib)   ...       0.23
freq.     376.90  E(vib)   ...       0.21
freq.     394.62  E(vib)   ...       0.20
freq.     494.41  E(vib)   ...       0.14
freq.     501.11  E(vib)   ...       0.14
freq.     588.16  E(vib)   ...       0.10
freq.     602.94  E(vib)   ...       0.10
freq.     643.11  E(vib)   ...       0.09
freq.     645.88  E(vib)   ...       0.09
freq.     691.19  E(vib)   ...       0.07
freq.     804.06  E(vib)   ...       0.05
freq.     809.18  E(vib)   ...       0.05
freq.     824.10  E(vib)   ...       0.05
freq.     861.55  E(vib)   ...       0.04
freq.     895.61  E(vib)   ...       0.03
freq.     913.89  E(vib)   ...       0.03
freq.     974.39  E(vib)   ...       0.03
freq.    1004.41  E(vib)   ...       0.02
freq.    1033.57  E(vib)   ...       0.02
freq.    1034.16  E(vib)   ...       0.02
freq.    1092.39  E(vib)   ...       0.02
freq.    1158.60  E(vib)   ...       0.01
freq.    1162.66  E(vib)   ...       0.01
freq.    1207.53  E(vib)   ...       0.01
freq.    1321.87  E(vib)   ...       0.01
freq.    1381.84  E(vib)   ...       0.01
freq.    1395.24  E(vib)   ...       0.00
freq.    1429.92  E(vib)   ...       0.00
freq.    1488.68  E(vib)   ...       0.00
freq.    1547.21  E(vib)   ...       0.00
freq.    1637.19  E(vib)   ...       0.00
freq.    1677.72  E(vib)   ...       0.00
freq.    1720.04  E(vib)   ...       0.00
freq.    1764.02  E(vib)   ...       0.00
freq.    2993.48  E(vib)   ...       0.00
freq.    3195.75  E(vib)   ...       0.00
freq.    3196.59  E(vib)   ...       0.00
freq.    3221.01  E(vib)   ...       0.00
freq.    3222.25  E(vib)   ...       0.00
freq.    3524.63  E(vib)   ...       0.00
freq.    3639.87  E(vib)   ...       0.00

------------
INNER ENERGY
------------

The inner energy is: U= E(el) + E(ZPE) + E(vib) + E(rot) + E(trans)
    E(el)   - is the total energy from the electronic structure calculation
              = E(kin-el) + E(nuc-el) + E(el-el) + E(nuc-nuc)
    E(ZPE)  - the the zero temperature vibrational energy from the frequency calculation
    E(vib)  - the the finite temperature correction to E(ZPE) due to population
              of excited vibrational states
    E(rot)  - is the rotational thermal energy
    E(trans)- is the translational thermal energy

Summary of contributions to the inner energy U:
Electronic energy                ...   -491.83110382 Eh
Zero point energy                ...      0.13198848 Eh      82.82 kcal/mol
Thermal vibrational correction   ...      0.00561184 Eh       3.52 kcal/mol
Thermal rotational correction    ...      0.00141627 Eh       0.89 kcal/mol
Thermal translational correction ...      0.00141627 Eh       0.89 kcal/mol
-----------------------------------------------------------------------
Total thermal energy                   -491.69067096 Eh

Summary of corrections to the electronic energy:
(perhaps to be used in another calculation)
Total thermal correction                  0.00844438 Eh       5.30 kcal/mol
Non-thermal (ZPE) correction              0.13198848 Eh      82.82 kcal/mol
-----------------------------------------------------------------------
Total correction                          0.14043286 Eh      88.12 kcal/mol

--------
ENTHALPY
--------

The enthalpy is H = U + kB*T
                kB is Boltzmann's constant
Total free energy                 ...   -491.69067096 Eh
Thermal Enthalpy correction       ...      0.00094421 Eh       0.59 kcal/mol
-----------------------------------------------------------------------
Total Enthalpy                    ...   -491.68972675 Eh

Note: Only C1 symmetry has been detected, increase convergence thresholds
      if your molecule has a higher symmetry. Symmetry factor of 1.0 is
      used for the rotational entropy correction.

Note: Rotational entropy computed according to Herzberg
Infrared and Raman Spectra, Chapter V,1, Van Nostrand Reinhold, 1945
Point Group:  C1, Symmetry Number:   1
Rotational constants in cm-1:     0.110090     0.028783     0.024031

Vibrational entropy computed according to the QRRHO of S. Grimme
Chem.Eur.J. 2012 18 9955

-------
ENTROPY
-------

The entropy contributions are T*S = T*(S(el)+S(vib)+S(rot)+S(trans))
     S(el)   - electronic entropy
     S(vib)  - vibrational entropy
     S(rot)  - rotational entropy
     S(trans)- translational entropy
The entropies will be listed as multiplied by the temperature to get
units of energy

Electronic entropy                ...      0.00000000 Eh      0.00 kcal/mol
Vibrational entropy               ...      0.00939597 Eh      5.90 kcal/mol
Rotational entropy                ...      0.01398756 Eh      8.78 kcal/mol
Translational entropy             ...      0.01933899 Eh     12.14 kcal/mol
-----------------------------------------------------------------------
Final entropy term                ...      0.04272252 Eh     26.81 kcal/mol

In case the symmetry of your molecule has not been determined correctly
or in case you have a reason to use a different symmetry number we print
out the resulting rotational entropy values for sn=1,12 :
 --------------------------------------------------------
|  sn= 1 | S(rot)=       0.01398756 Eh      8.78 kcal/mol|
|  sn= 2 | S(rot)=       0.01333310 Eh      8.37 kcal/mol|
|  sn= 3 | S(rot)=       0.01295027 Eh      8.13 kcal/mol|
|  sn= 4 | S(rot)=       0.01267865 Eh      7.96 kcal/mol|
|  sn= 5 | S(rot)=       0.01246796 Eh      7.82 kcal/mol|
|  sn= 6 | S(rot)=       0.01229581 Eh      7.72 kcal/mol|
|  sn= 7 | S(rot)=       0.01215027 Eh      7.62 kcal/mol|
|  sn= 8 | S(rot)=       0.01202419 Eh      7.55 kcal/mol|
|  sn= 9 | S(rot)=       0.01191298 Eh      7.48 kcal/mol|
|  sn=10 | S(rot)=       0.01181350 Eh      7.41 kcal/mol|
|  sn=11 | S(rot)=       0.01172351 Eh      7.36 kcal/mol|
|  sn=12 | S(rot)=       0.01164136 Eh      7.31 kcal/mol|
 --------------------------------------------------------

-------------------
GIBBS FREE ENERGY
-------------------

                             ****ORCA TERMINATED NORMALLY****
TOTAL RUN TIME: 0 days 1 hours 24 minutes 16 seconds 922 msec
