                         Program Version 5.0.4 -  RELEASE  -
|  1> !B3LYP D3 DEF2-SVP KEEPDENS
|  2> * xyz -1 2
|  3>   C      -4.127240      1.598090      0.000000
|  4>   C      -5.236140      0.753090      0.000000
|  5>   C      -5.058790     -0.629750      0.000000
|  6>   C      -3.772550     -1.167590      0.000000
|  7>   C      -2.663650     -0.322590      0.000000
|  8>   C      -2.840990      1.060250      0.000000
|  9>   H      -4.265550      2.676550      0.000000
| 10>   H      -1.976170      1.719260      0.000000
| 11>   H      -1.660520     -0.742040      0.000000
| 12>   H      -3.634240     -2.246050      0.000000
| 13>   H      -5.923620     -1.288760      0.000000
| 14>   H      -6.239270      1.172540      0.000000
| 15> *
| 16>
| 17>                          ****END OF INPUT****

CARTESIAN COORDINATES (ANGSTROEM)
---------------------------------
  C     -4.127240    1.598090    0.000000
  C     -5.236140    0.753090    0.000000
  C     -5.058790   -0.629750    0.000000
  C     -3.772550   -1.167590    0.000000
  C     -2.663650   -0.322590    0.000000
  C     -2.840990    1.060250    0.000000
  H     -4.265550    2.676550    0.000000
  H     -1.976170    1.719260    0.000000
  H     -1.660520   -0.742040    0.000000
  H     -3.634240   -2.246050    0.000000
  H     -5.923620   -1.288760    0.000000
  H     -6.239270    1.172540    0.000000

 Total Charge           Charge          ....   -1
 Multiplicity           Mult            ....    2
 Number of Electrons    NEL             ....   43
 Basis Dimension        Dim             ....  114

ORBITAL ENERGIES
----------------
                 SPIN UP ORBITALS
  NO   OCC          E(Eh)            E(eV)
   0   1.0000      -9.969747      -271.2906
   1   1.0000      -9.969706      -271.2895
   2   1.0000      -9.949115      -270.7292
   3   1.0000      -9.949075      -270.7281
   4   1.0000      -9.938721      -270.4464
   5   1.0000      -9.938682      -270.4453
   6   1.0000      -0.616120       -16.7655
   7   1.0000      -0.514164       -13.9911
   8   1.0000      -0.509463       -13.8632
   9   1.0000      -0.376022       -10.2321
  10   1.0000      -0.375486       -10.2175
  11   1.0000      -0.303726        -8.2648
  12   1.0000      -0.245876        -6.6906
  13   1.0000      -0.217909        -5.9296
  14   1.0000      -0.205531        -5.5928
  15   1.0000      -0.197445        -5.3727
  16   1.0000      -0.150861        -4.1051
  17   1.0000      -0.126567        -3.4441
  18   1.0000      -0.123898        -3.3714
  19   1.0000      -0.043219        -1.1761
  20   1.0000      -0.042282        -1.1506
  21   1.0000       0.154056         4.1921
  22   0.0000       0.210363         5.7243
  23   0.0000       0.234132         6.3711
  24   0.0000       0.268239         7.2992
  25   0.0000       0.273778         7.4499
  26   0.0000       0.304611         8.2889

                 SPIN DOWN ORBITALS
  NO   OCC          E(Eh)            E(eV)
   0   1.0000      -9.970985      -271.3243
   1   1.0000      -9.970944      -271.3232
   2   1.0000      -9.945904      -270.6418
   3   1.0000      -9.945862      -270.6407
   4   1.0000      -9.933352      -270.3002
   5   1.0000      -9.933311      -270.2991
   6   1.0000      -0.609395       -16.5825
   7   1.0000      -0.509869       -13.8742
   8   1.0000      -0.498464       -13.5639
   9   1.0000      -0.374582       -10.1929
  10   1.0000      -0.363560        -9.8930
  11   1.0000      -0.301015        -8.1910
  12   1.0000      -0.241004        -6.5581
  13   1.0000      -0.214325        -5.8321
  14   1.0000      -0.204325        -5.5600
  15   1.0000      -0.194064        -5.2808
  16   1.0000      -0.132509        -3.6058
  17   1.0000      -0.124236        -3.3806
  18   1.0000      -0.121275        -3.3001
  19   1.0000      -0.030267        -0.8236
  20   1.0000      -0.008641        -0.2351
  21   0.0000       0.214278         5.8308
  22   0.0000       0.235176         6.3995
  23   0.0000       0.237554         6.4642
  24   0.0000       0.268326         7.3015
  25   0.0000       0.275545         7.4980

MULLIKEN ATOMIC CHARGES AND SPIN POPULATIONS
--------------------------------------------
   0 C :    0.031679   -0.106935
   1 C :   -0.041725    0.238202
   2 C :   -0.074532    0.404427
   3 C :    0.031684   -0.106933
   4 C :   -0.041727    0.238206
   5 C :   -0.074530    0.404433
   6 H :   -0.126754    0.002851
   7 H :   -0.147887   -0.023691
   8 H :   -0.140785   -0.014861
   9 H :   -0.126754    0.002852
  10 H :   -0.147885   -0.023690
  11 H :   -0.140784   -0.014861
Sum of atomic charges         :   -1.0000000

LOEWDIN ATOMIC CHARGES AND SPIN POPULATIONS
-------------------------------------------
   0 C :   -0.057410   -0.041170
   1 C :   -0.159025    0.207667
   2 C :   -0.207657    0.327546
   3 C :   -0.057411   -0.041169
   4 C :   -0.159025    0.207672
   5 C :   -0.207658    0.327549
   6 H :   -0.017552   -0.000419
   7 H :   -0.031504    0.003868
   8 H :   -0.026852    0.002504
   9 H :   -0.017551   -0.000419
  10 H :   -0.031504    0.003868
  11 H :   -0.026851    0.002504

  Mayer bond orders larger than 0.100000
B(  0-C ,  1-C ) :   1.4740 B(  0-C ,  5-C ) :   1.3259 B(  0-C ,  6-H ) :   0.9621
B(  1-C ,  2-C ) :   1.1447 B(  1-C , 11-H ) :   0.9630 B(  2-C ,  3-C ) :   1.3260
B(  2-C , 10-H ) :   0.9630 B(  3-C ,  4-C ) :   1.4739 B(  3-C ,  9-H ) :   0.9621
B(  4-C ,  5-C ) :   1.1447 B(  4-C ,  8-H ) :   0.9630 B(  5-C ,  7-H ) :   0.9630

Dispersion correction           -0.018914963
FINAL SINGLE POINT ENERGY      -231.874563045708

DIPOLE MOMENT
-------------
                                X             Y             Z
Electronic contribution:      0.00000       0.00000      -0.00000
Nuclear contribution   :     -0.00001      -0.00000       0.00000
                        -----------------------------------------
Total Dipole Moment    :     -0.00001       0.00000      -0.00000
                        -----------------------------------------
Magnitude (a.u.)       :      0.00001
Magnitude (Debye)      :      0.00001

Rotational constants in cm-1:     0.190144     0.190142     0.095071
Rotational constants in MHz :  5700.361471  5700.315818  2850.169322

                             ****ORCA TERMINATED NORMALLY****
TOTAL RUN TIME: 0 days 0 hours 0 minutes 43 seconds 852 msec
