                         Program Version 5.0.4 -  RELEASE  -
|  1> !RHF cc-pVTZ
|  2>
|  3> * xyz 0 1
|  4>   C   -1.05354596271083      1.42135243576665     -0.73549220185663
|  5>   C   -1.76717691585433      0.81968690597605      0.22444324622836
|  6>   C   -0.91604797271676     -0.21504620254596      0.92339098529051
|  7>   C   -3.18658916550982      1.06760146729181      0.62043996179919
|  8>   H   -3.65177058285626      1.84890976029203      0.00161745831760
|  9>   H   -3.25259686050292      1.37975261146372      1.67787971117939
| 10>   H   -3.79133874736600      0.14808169577577      0.52701048897989
| 11>   C   0.35705795446457      0.89749440001034     -0.79501799653405
| 12>   C   1.41588701773226      2.02006837281249     -0.63884945754235
| 13>   C   2.80881703463114      1.41251132710473     -0.63583732910559
| 14>   H   1.20967085252781      2.57392305919014      0.29049098629325
| 15>   H   1.34740263144453      2.70902449090648     -1.49554455642121
| 16>   C   3.37622781232091      1.19049215945855      0.75754145591531
| 17>   N   0.41123761481178     -0.07210345422347      0.31381604773552
| 18>   H   0.56307393880421      0.40954505459904     -1.76931562713006
| 19>   H   -1.34153580290440     -1.23063666814028      0.78694765203342
| 20>   H   -0.89469173408622     -0.03961126720342      2.01833030977159
| 21>   H   0.80199521648994     -0.96262165511348      0.02364954504097
| 22>   O   3.36130687691708      1.06897825383177     -1.65256833709520
| 23>   Cl  4.92950915132907      0.31373216343513      0.77168111918747
| 24>   H   2.62051255229742      0.61607693324621      1.31840686987001
| 25>   H   3.50773757250952      2.16097047317234      1.26235402519175
| 26>   H   -1.41589248177270      2.21265768289335     -1.39571435714913
| 27> *
| 28>
| 29>                          ****END OF INPUT****

CARTESIAN COORDINATES (ANGSTROEM)
---------------------------------
  C     -1.053546    1.421352   -0.735492
  C     -1.767177    0.819687    0.224443
  C     -0.916048   -0.215046    0.923391
  C     -3.186589    1.067601    0.620440
  H     -3.651771    1.848910    0.001617
  H     -3.252597    1.379753    1.677880
  H     -3.791339    0.148082    0.527010
  C      0.357058    0.897494   -0.795018
  C      1.415887    2.020068   -0.638849
  C      2.808817    1.412511   -0.635837
  H      1.209671    2.573923    0.290491
  H      1.347403    2.709024   -1.495545
  C      3.376228    1.190492    0.757541
  N      0.411238   -0.072103    0.313816
  H      0.563074    0.409545   -1.769316
  H     -1.341536   -1.230637    0.786948
  H     -0.894692   -0.039611    2.018330
  H      0.801995   -0.962622    0.023650
  O      3.361307    1.068978   -1.652568
  Cl     4.929509    0.313732    0.771681
  H      2.620513    0.616077    1.318407
  H      3.507738    2.160970    1.262354
  H     -1.415892    2.212658   -1.395714

 Total Charge           Charge          ....    0
 Multiplicity           Mult            ....    1
 Number of Electrons    NEL             ....   92
 Basis Dimension        Dim             ....  502

ORBITAL ENERGIES
----------------

  NO   OCC          E(Eh)            E(eV)
   0   2.0000    -104.819422     -2852.2815
   1   2.0000     -20.550671      -559.2122
   2   2.0000     -15.555707      -423.2923
   3   2.0000     -11.337721      -308.5151
   4   2.0000     -11.298263      -307.4414
   5   2.0000     -11.280194      -306.9497
   6   2.0000     -11.268897      -306.6423
   7   2.0000     -11.249204      -306.1064
   8   2.0000     -11.243189      -305.9427
   9   2.0000     -11.240509      -305.8698
  10   2.0000     -11.232751      -305.6587
  11   2.0000     -10.544318      -286.9255
  12   2.0000      -8.011160      -217.9947
  13   2.0000      -8.009294      -217.9440
  14   2.0000      -8.009280      -217.9436
  15   2.0000      -1.394861       -37.9561
  16   2.0000      -1.241742       -33.7895
  17   2.0000      -1.129549       -30.7366
  18   2.0000      -1.077604       -29.3231
  19   2.0000      -1.057965       -28.7887
  20   2.0000      -0.981991       -26.7213
  21   2.0000      -0.941638       -25.6233
  22   2.0000      -0.914716       -24.8907
  23   2.0000      -0.808206       -21.9924
  24   2.0000      -0.745907       -20.2972
  25   2.0000      -0.732052       -19.9201
  26   2.0000      -0.702696       -19.1213
  27   2.0000      -0.662254       -18.0209
  28   2.0000      -0.652123       -17.7452
  29   2.0000      -0.630879       -17.1671
  30   2.0000      -0.622520       -16.9396
  31   2.0000      -0.597151       -16.2493
  32   2.0000      -0.591690       -16.1007
  33   2.0000      -0.573689       -15.6109
  34   2.0000      -0.552544       -15.0355
  35   2.0000      -0.549699       -14.9581
  36   2.0000      -0.542562       -14.7639
  37   2.0000      -0.519338       -14.1319
  38   2.0000      -0.514042       -13.9878
  39   2.0000      -0.503199       -13.6927
  40   2.0000      -0.486905       -13.2494
  41   2.0000      -0.441989       -12.0271
  42   2.0000      -0.431712       -11.7475
  43   2.0000      -0.411983       -11.2106
  44   2.0000      -0.393292       -10.7020
  45   2.0000      -0.345104        -9.3908
  46   0.0000       0.122637         3.3371
  47   0.0000       0.136148         3.7048
  48   0.0000       0.139284         3.7901
  49   0.0000       0.146339         3.9821
  50   0.0000       0.156897         4.2694

MULLIKEN ATOMIC CHARGES
-----------------------
   0 C :   -0.285973
   1 C :    0.016643
   2 C :   -0.050239
   3 C :   -0.258345
   4 H :    0.103116
   5 H :    0.096833
   6 H :    0.095797
   7 C :    0.070163
   8 C :   -0.189785
   9 C :    0.272249
  10 H :    0.105629
  11 H :    0.124837
  12 C :   -0.091019
  13 N :   -0.339733
  14 H :    0.125341
  15 H :    0.086371
  16 H :    0.078466
  17 H :    0.146035
  18 O :   -0.347949
  19 Cl:   -0.186870
  20 H :    0.135265
  21 H :    0.128512
  22 H :    0.164657
Sum of atomic charges:    0.0000000

LOEWDIN ATOMIC CHARGES
----------------------
   0 C :    0.030465
   1 C :   -0.050734
   2 C :    0.000129
   3 C :    0.105735
   4 H :   -0.014956
   5 H :   -0.016220
   6 H :   -0.016503
   7 C :   -0.078954
   8 C :    0.056226
   9 C :   -0.267545
  10 H :   -0.018111
  11 H :   -0.010179
  12 C :   -0.137009
  13 N :    0.320789
  14 H :   -0.019158
  15 H :   -0.027668
  16 H :   -0.027852
  17 H :   -0.111115
  18 O :    0.159343
  19 Cl:    0.210063
  20 H :   -0.029331
  21 H :   -0.025544
  22 H :   -0.031872

  Mayer bond orders larger than 0.100000
B(  0-C ,  1-C ) :   1.8518 B(  0-C ,  7-C ) :   0.9945 B(  0-C , 22-H ) :   0.9471
B(  1-C ,  2-C ) :   0.9811 B(  1-C ,  3-C ) :   0.9569 B(  2-C , 13-N ) :   0.9970
B(  2-C , 15-H ) :   0.9792 B(  2-C , 16-H ) :   0.9743 B(  3-C ,  4-H ) :   0.9899
B(  3-C ,  5-H ) :   0.9730 B(  3-C ,  6-H ) :   0.9717 B(  7-C ,  8-C ) :   0.9319
B(  7-C , 13-N ) :   0.9609 B(  7-C , 14-H ) :   0.9804 B(  8-C ,  9-C ) :   0.9336
B(  8-C , 10-H ) :   0.9764 B(  8-C , 11-H ) :   0.9759 B(  9-C , 12-C ) :   0.9249
B(  9-C , 18-O ) :   2.1174 B( 12-C , 19-Cl) :   0.9986 B( 12-C , 20-H ) :   0.9484
B( 12-C , 21-H ) :   0.9631 B( 13-N , 17-H ) :   0.9805

FINAL SINGLE POINT ENERGY      -898.887250182816

DIPOLE MOMENT
-------------
                                X             Y             Z
Electronic contribution:     22.44553      -2.16755      -0.98727
Nuclear contribution   :    -24.46675       2.52936       1.68763
                        -----------------------------------------
Total Dipole Moment    :     -2.02122       0.36181       0.70036
                        -----------------------------------------
Magnitude (a.u.)       :      2.16950
Magnitude (Debye)      :      5.51443

Rotational constants in cm-1:     0.078975     0.013377     0.012208
Rotational constants in MHz :  2367.608052   401.025928   365.983271

                             ****ORCA TERMINATED NORMALLY****
TOTAL RUN TIME: 0 days 0 hours 33 minutes 14 seconds 95 msec
