                         Program Version 4.2.1 -  RELEASE  -
|  1> !B3LYP DEF2-SVP OPT FREQ
|  2>
|  3> * xyz 0 1
|  4>    C       -6.18961        1.04447        0.00000
|  5>    C       -7.38113        0.30061        0.00000
|  6>    C       -7.34047       -1.09927        0.00000
|  7>    C       -6.11307       -1.76392        0.00000
|  8>    C       -4.92237       -1.03457       -0.00000
|  9>    C       -4.95672        0.36663        0.00000
| 10>    C       -6.24855        2.54911        0.00000
| 11>    H       -5.23302        3.00015        0.00000
| 12>    H       -6.78858        2.90958        0.90153
| 13>    H       -6.78858        2.90958       -0.90153
| 14>    H       -8.34135        0.80038        0.00000
| 15>    H       -8.25957       -1.67061        0.00000
| 16>    H       -6.08497       -2.84679       -0.00000
| 17>    H       -3.97493       -1.55829       -0.00000
| 18>    H       -4.02236        0.91392        0.00000
| 19> **                         ****END OF INPUT****
 Total Charge           Charge          ....    0
 Multiplicity           Mult            ....    1
 Number of Electrons    NEL             ....   50
FINAL SINGLE POINT ENERGY      -271.188964389169
FINAL SINGLE POINT ENERGY      -271.189845464904
FINAL SINGLE POINT ENERGY      -271.189925870747
FINAL SINGLE POINT ENERGY      -271.189950038024
FINAL SINGLE POINT ENERGY      -271.189952083730
                    ***********************HURRAY********************

CARTESIAN COORDINATES (ANGSTROEM)
---------------------------------
  C     -6.191252    1.045787   -0.000000
  C     -7.375805    0.288259   -0.000000
  C     -7.339088   -1.107685   -0.000000
  C     -6.111179   -1.779318    0.000000
  C     -4.925661   -1.040474    0.000000
  C     -4.968191    0.358232   -0.000000
  C     -6.245540    2.555082    0.000000
  H     -5.238430    2.997559   -0.000000
  H     -6.780528    2.937917    0.886057
  H     -6.780528    2.937917   -0.886057
  H     -8.342135    0.802973    0.000000
  H     -8.273710   -1.675716   -0.000000
  H     -6.080230   -2.872496    0.000000
  H     -3.959934   -1.553891    0.000000
  H     -4.033070    0.926833   -0.000000

 Multiplicity           Mult            ....    1
 Number of Electrons    NEL             ....   50
 Basis Dimension        Dim             ....  138

ORBITAL ENERGIES
----------------

  NO   OCC          E(Eh)            E(eV)
   0   2.0000     -10.191318      -277.3199
   1   2.0000     -10.184957      -277.1468
   2   2.0000     -10.184600      -277.1371
   3   2.0000     -10.184398      -277.1316
   4   2.0000     -10.183133      -277.0971
   5   2.0000     -10.182353      -277.0759
   6   2.0000     -10.182165      -277.0708
   7   2.0000      -0.842348       -22.9215
   8   2.0000      -0.758506       -20.6400
   9   2.0000      -0.730264       -19.8715
  10   2.0000      -0.672749       -18.3064
  11   2.0000      -0.593741       -16.1565
  12   2.0000      -0.573438       -15.6040
  13   2.0000      -0.503793       -13.7089
  14   2.0000      -0.455958       -12.4073
  15   2.0000      -0.445155       -12.1133
  16   2.0000      -0.415447       -11.3049
  17   2.0000      -0.414114       -11.2686
  18   2.0000      -0.404767       -11.0143
  19   2.0000      -0.380840       -10.3632
  20   2.0000      -0.351270        -9.5585
  21   2.0000      -0.339859        -9.2480
  22   2.0000      -0.335369        -9.1258
  23   2.0000      -0.249407        -6.7867
  24   2.0000      -0.240407        -6.5418
  25   0.0000      -0.005305        -0.1444
  26   0.0000      -0.000524        -0.0142
  27   0.0000       0.064481         1.7546
  28   0.0000       0.081639         2.2215
  29   0.0000       0.097444         2.6516

MULLIKEN ATOMIC CHARGES
-----------------------
   0 C :   -0.042799
   1 C :   -0.014630
   2 C :    0.025638
   3 C :    0.007691
   4 C :    0.024894
   5 C :   -0.011877
   6 C :    0.079401
   7 H :    0.003843
   8 H :    0.024711
   9 H :    0.024711
  10 H :   -0.032924
  11 H :   -0.020130
  12 H :   -0.014945
  13 H :   -0.021542
  14 H :   -0.032042
Sum of atomic charges:   -0.0000000

LOEWDIN ATOMIC CHARGES
----------------------
   0 C :   -0.024854
   1 C :   -0.030095
   2 C :   -0.023813
   3 C :   -0.034990
   4 C :   -0.024336
   5 C :   -0.032695
   6 C :   -0.045631
   7 H :    0.026474
   8 H :    0.033870
   9 H :    0.033870
  10 H :    0.022755
  11 H :    0.025616
  12 H :    0.025818
  13 H :    0.025506
  14 H :    0.022505

  Mayer bond orders larger than 0.100000
B(  0-C ,  1-C ) :   1.3828 B(  0-C ,  5-C ) :   1.4002 B(  0-C ,  6-C ) :   1.0617
B(  1-C ,  2-C ) :   1.3959 B(  1-C , 10-H ) :   0.9884 B(  2-C ,  3-C ) :   1.3730
B(  2-C , 11-H ) :   0.9836 B(  3-C ,  4-C ) :   1.3919 B(  3-C , 12-H ) :   0.9868
B(  4-C ,  5-C ) :   1.3778 B(  4-C , 13-H ) :   0.9827 B(  5-C , 14-H ) :   0.9831
B(  6-C ,  7-H ) :   0.9599 B(  6-C ,  8-H ) :   0.9560 B(  6-C ,  9-H ) :   0.9560

FINAL SINGLE POINT ENERGY      -271.189952433695

DIPOLE MOMENT
-------------
                                X             Y             Z
Electronic contribution:      0.11650      -3.38811      -0.00000
Nuclear contribution   :     -0.14262       3.54029       0.00000
                        -----------------------------------------
Total Dipole Moment    :     -0.02612       0.15218       0.00000
                        -----------------------------------------
Magnitude (a.u.)       :      0.15440
Magnitude (Debye)      :      0.39246

VIBRATIONAL FREQUENCIES
-----------------------

Scaling factor for frequencies =  1.000000000  (already applied!)

   0:         0.00 cm**-1
   1:         0.00 cm**-1
   2:         0.00 cm**-1
   3:         0.00 cm**-1
   4:         0.00 cm**-1
   5:         0.00 cm**-1
   6:         8.00 cm**-1
   7:       213.58 cm**-1
   8:       344.80 cm**-1
   9:       420.24 cm**-1
  10:       483.10 cm**-1
  11:       527.85 cm**-1
  12:       634.52 cm**-1
  13:       721.17 cm**-1
  14:       752.12 cm**-1
  15:       800.46 cm**-1
  16:       863.78 cm**-1
  17:       922.04 cm**-1
  18:       989.51 cm**-1
  19:       999.88 cm**-1
  20:      1014.06 cm**-1
  21:      1022.37 cm**-1
  22:      1050.60 cm**-1
  23:      1052.67 cm**-1
  24:      1105.06 cm**-1
  25:      1167.05 cm**-1
  26:      1189.72 cm**-1
  27:      1232.77 cm**-1
  28:      1333.92 cm**-1
  29:      1360.94 cm**-1
  30:      1395.37 cm**-1
  31:      1451.74 cm**-1
  32:      1456.39 cm**-1
  33:      1488.86 cm**-1
  34:      1528.55 cm**-1
  35:      1638.94 cm**-1
  36:      1664.07 cm**-1
  37:      3021.78 cm**-1
  38:      3086.09 cm**-1
  39:      3122.12 cm**-1
  40:      3157.00 cm**-1
  41:      3160.94 cm**-1
  42:      3171.80 cm**-1
  43:      3180.49 cm**-1
  44:      3191.24 cm**-1

IR SPECTRUM
-----------

 Mode    freq (cm**-1)   T**2         TX         TY         TZ
-------------------------------------------------------------------
   6:         8.00    0.335631  (  0.000000   0.000000   0.579337)
   7:       213.58    1.747008  ( -0.000000   0.000000   1.321744)
   8:       344.80    0.386867  ( -0.609434   0.124326  -0.000000)
   9:       420.24    0.004645  (  0.000001   0.000001   0.068156)
  10:       483.10    6.772675  ( -0.000000   0.000000   2.602436)
  11:       527.85    0.389775  (  0.055244   0.621871   0.000000)
  12:       634.52    0.104691  ( -0.322327  -0.028225  -0.000000)
  13:       721.17   21.834403  (  0.000001   0.000000  -4.672730)
  14:       752.12   30.028580  ( -0.000001  -0.000001  -5.479834)
  15:       800.46    0.605173  ( -0.136963   0.765777  -0.000000)
  16:       863.78    0.003573  ( -0.000001  -0.000000  -0.059772)
  17:       922.04    0.088967  (  0.000000   0.000000   0.298274)
  18:       989.51    1.978272  ( -0.125711   1.400881   0.000000)
  19:       999.88    0.000151  ( -0.000001  -0.000001   0.012284)
  20:      1014.06    0.358544  ( -0.040733  -0.597398   0.000000)
  21:      1022.37    0.055770  ( -0.000000   0.000000   0.236158)
  22:      1050.60    2.863652  ( -0.040024   1.691759  -0.000000)
  23:      1052.67    3.934269  (  0.000000   0.000001   1.983499)
  24:      1105.06    5.891298  (  2.392099  -0.411292   0.000000)
  25:      1167.05    0.066606  ( -0.242036  -0.089580  -0.000000)
  26:      1189.72    0.251876  ( -0.042820   0.500043   0.000000)
  27:      1232.77    0.827257  ( -0.168101   0.893867   0.000000)
  28:      1333.92    0.412034  (  0.176245   0.617229   0.000000)
  29:      1360.94    0.163564  (  0.106760   0.390085   0.000000)
  30:      1395.37    0.230386  (  0.443299  -0.184045   0.000000)
  31:      1451.74    1.548550  (  1.244272  -0.018386  -0.000000)
  32:      1456.39    5.958403  (  0.000000   0.000000   2.440984)
  33:      1488.86   10.452832  (  3.218258   0.309269   0.000000)
  34:      1528.55   14.635410  (  0.081839  -3.824750  -0.000000)
  35:      1638.94    0.543336  (  0.698829  -0.234467   0.000000)
  36:      1664.07    7.440345  ( -0.089294   2.726238   0.000000)
  37:      3021.78   24.672019  (  0.601061  -4.930593  -0.000000)
  38:      3086.09   14.127034  ( -0.000000  -0.000001   3.758595)
  39:      3122.12   12.401151  (  3.360679   1.052136   0.000000)
  40:      3157.00    7.762154  (  1.396024  -2.411072  -0.000000)
  41:      3160.94    5.145405  ( -1.846268  -1.317839   0.000000)
  42:      3171.80    6.751160  ( -0.036746   2.598040  -0.000000)
  43:      3180.49   31.235724  ( -5.572766  -0.424269  -0.000000)
  44:      3191.24   11.790340  (  0.165041  -3.429738  -0.000000)

--------------------------
THERMOCHEMISTRY AT 298.15K
--------------------------

Temperature         ... 298.15 K
Pressure            ... 1.00 atm
Total Mass          ... 92.14 AMU

Throughout the following assumptions are being made:
  (1) The electronic state is orbitally nondegenerate
  (2) There are no thermally accessible electronically excited states
  (3) Hindered rotations indicated by low frequency modes are not
      treated as such but are treated as vibrations and this may
      cause some error
  (4) All equations used are the standard statistical mechanics
      equations for an ideal gas
  (5) All vibrations are strictly harmonic

freq.       8.00  E(vib)   ...       0.58
freq.     213.58  E(vib)   ...       0.34
freq.     344.80  E(vib)   ...       0.23
freq.     420.24  E(vib)   ...       0.18
freq.     483.10  E(vib)   ...       0.15
freq.     527.85  E(vib)   ...       0.13
freq.     634.52  E(vib)   ...       0.09
freq.     721.17  E(vib)   ...       0.07
freq.     752.12  E(vib)   ...       0.06
freq.     800.46  E(vib)   ...       0.05
freq.     863.78  E(vib)   ...       0.04
freq.     922.04  E(vib)   ...       0.03
freq.     989.51  E(vib)   ...       0.02
freq.     999.88  E(vib)   ...       0.02
freq.    1014.06  E(vib)   ...       0.02
freq.    1022.37  E(vib)   ...       0.02
freq.    1050.60  E(vib)   ...       0.02
freq.    1052.67  E(vib)   ...       0.02
freq.    1105.06  E(vib)   ...       0.02
freq.    1167.05  E(vib)   ...       0.01
freq.    1189.72  E(vib)   ...       0.01
freq.    1232.77  E(vib)   ...       0.01
freq.    1333.92  E(vib)   ...       0.01
freq.    1360.94  E(vib)   ...       0.01
freq.    1395.37  E(vib)   ...       0.00
freq.    1451.74  E(vib)   ...       0.00
freq.    1456.39  E(vib)   ...       0.00
freq.    1488.86  E(vib)   ...       0.00
freq.    1528.55  E(vib)   ...       0.00
freq.    1638.94  E(vib)   ...       0.00
freq.    1664.07  E(vib)   ...       0.00
freq.    3021.78  E(vib)   ...       0.00
freq.    3086.09  E(vib)   ...       0.00
freq.    3122.12  E(vib)   ...       0.00
freq.    3157.00  E(vib)   ...       0.00
freq.    3160.94  E(vib)   ...       0.00
freq.    3171.80  E(vib)   ...       0.00
freq.    3180.49  E(vib)   ...       0.00
freq.    3191.24  E(vib)   ...       0.00

------------
INNER ENERGY
------------

The inner energy is: U= E(el) + E(ZPE) + E(vib) + E(rot) + E(trans)
    E(el)   - is the total energy from the electronic structure calculation
              = E(kin-el) + E(nuc-el) + E(el-el) + E(nuc-nuc)
    E(ZPE)  - the the zero temperature vibrational energy from the frequency calculation
    E(vib)  - the the finite temperature correction to E(ZPE) due to population
              of excited vibrational states
    E(rot)  - is the rotational thermal energy
    E(trans)- is the translational thermal energy

Summary of contributions to the inner energy U:
Electronic energy                ...   -271.18995243 Eh
Zero point energy                ...      0.12740786 Eh      79.95 kcal/mol
Thermal vibrational correction   ...      0.00342667 Eh       2.15 kcal/mol
Thermal rotational correction    ...      0.00141627 Eh       0.89 kcal/mol
Thermal translational correction ...      0.00141627 Eh       0.89 kcal/mol
-----------------------------------------------------------------------
Total thermal energy                   -271.05628536 Eh

Summary of corrections to the electronic energy:
(perhaps to be used in another calculation)
Total thermal correction                  0.00625921 Eh       3.93 kcal/mol
Non-thermal (ZPE) correction              0.12740786 Eh      79.95 kcal/mol
-----------------------------------------------------------------------
Total correction                          0.13366707 Eh      83.88 kcal/mol

--------
ENTHALPY
--------

The enthalpy is H = U + kB*T
                kB is Boltzmann's constant
Total free energy                 ...   -271.05628536 Eh
Thermal Enthalpy correction       ...      0.00094421 Eh       0.59 kcal/mol
-----------------------------------------------------------------------
Total Enthalpy                    ...   -271.05534115 Eh

Note: Rotational entropy computed according to Herzberg
Infrared and Raman Spectra, Chapter V,1, Van Nostrand Reinhold, 1945
Point Group:  Cs, Symmetry Number:   1
Rotational constants in cm-1:     0.183668     0.083310     0.057937

Vibrational entropy computed according to the QRRHO of S. Grimme
Chem.Eur.J. 2012 18 9955

-------
ENTROPY
-------

The entropy contributions are T*S = T*(S(el)+S(vib)+S(rot)+S(trans))
     S(el)   - electronic entropy
     S(vib)  - vibrational entropy
     S(rot)  - rotational entropy
     S(trans)- translational entropy
The entropies will be listed as mutliplied by the temperature to get
units of energy

Electronic entropy                ...      0.00000000 Eh      0.00 kcal/mol
Vibrational entropy               ...      0.00618547 Eh      3.88 kcal/mol
Rotational entropy                ...      0.01282877 Eh      8.05 kcal/mol
Translational entropy             ...      0.01875532 Eh     11.77 kcal/mol
-----------------------------------------------------------------------
Final entropy term                ...      0.03776955 Eh     23.70 kcal/mol

In case the symmetry of your molecule has not been determined correctly
or in case you have a reason to use a different symmetry number we print
out the resulting rotational entropy values for sn=1,12 :
 --------------------------------------------------------
|  sn= 1 | S(rot)=       0.01282877 Eh      8.05 kcal/mol|
|  sn= 2 | S(rot)=       0.01217431 Eh      7.64 kcal/mol|
|  sn= 3 | S(rot)=       0.01179148 Eh      7.40 kcal/mol|
|  sn= 4 | S(rot)=       0.01151985 Eh      7.23 kcal/mol|
|  sn= 5 | S(rot)=       0.01130917 Eh      7.10 kcal/mol|
|  sn= 6 | S(rot)=       0.01113702 Eh      6.99 kcal/mol|
|  sn= 7 | S(rot)=       0.01099147 Eh      6.90 kcal/mol|
|  sn= 8 | S(rot)=       0.01086540 Eh      6.82 kcal/mol|
|  sn= 9 | S(rot)=       0.01075419 Eh      6.75 kcal/mol|
|  sn=10 | S(rot)=       0.01065471 Eh      6.69 kcal/mol|
|  sn=11 | S(rot)=       0.01056472 Eh      6.63 kcal/mol|
|  sn=12 | S(rot)=       0.01048256 Eh      6.58 kcal/mol|
 --------------------------------------------------------

-------------------
GIBBS FREE ENERGY
-------------------

The Gibbs free energy is G = H - T*S

Total enthalpy                    ...   -271.05534115 Eh
Total entropy correction          ...     -0.03776955 Eh    -23.70 kcal/mol
-----------------------------------------------------------------------
Final Gibbs free energy         ...   -271.09311071 Eh

For completeness - the Gibbs free energy minus the electronic energy
G-E(el)                           ...      0.09684173 Eh     60.77 kcal/mol

                             ****ORCA TERMINATED NORMALLY****
TOTAL RUN TIME: 0 days 0 hours 40 minutes 21 seconds 10 msec
