                         Program Version 5.0.4 -  RELEASE  -
|  1> !B3LYP DEF2-SVP OPT FREQ D4 SOSCF
|  2>
|  3> * xyz 0 1
|  4>    C       -3.00107        2.28200        0.00290
|  5>    C       -4.38179        2.01753       -0.00299
|  6>    C       -4.87310        0.70798       -0.00269
|  7>    C       -3.97787       -0.35067        0.00413
|  8>    C       -2.61086       -0.11423        0.01090
|  9>    C       -2.12266        1.19910        0.01051
| 10>    H       -5.10072        2.83430       -0.00853
| 11>    H       -5.94553        0.54169       -0.00776
| 12>    H       -1.04841        1.30943        0.01801
| 13>    H       -1.91800       -0.95178        0.01699
| 14>    O       -4.40103       -1.64501        0.00482
| 15>    H       -5.37225       -1.65690       -0.00033
| 16>    N       -2.63750        3.64063        0.00207
| 17>    C       -1.45676        4.31736       -0.00098
| 18>    H       -3.40619        4.30248        0.00407
| 19>    C       -0.13363        3.61488       -0.01154
| 20>    H       -0.03192        3.00782       -0.91387
| 21>    H       -0.01156        3.02046        0.89666
| 22>    H        0.66708        4.36186       -0.02628
| 23>    O       -1.50226        5.55177        0.00393
| 24> **                         ****END OF INPUT****
 Total Charge           Charge          ....    0
 Multiplicity           Mult            ....    1
 Number of Electrons    NEL             ....   80
Dispersion correction           -0.033272642
FINAL SINGLE POINT ENERGY      -514.843562293100
Dispersion correction            ... Starting D4
Dispersion correction           -0.033209146
FINAL SINGLE POINT ENERGY      -514.845737578102
Dispersion correction            ... Starting D4
Dispersion correction           -0.033117646
FINAL SINGLE POINT ENERGY      -514.846330181189
Dispersion correction            ... Starting D4
FINAL SINGLE POINT ENERGY      -514.846372325355
Dispersion correction           -0.033150353
FINAL SINGLE POINT ENERGY      -514.846380906065
Dispersion correction            ... Starting D4
Dispersion correction           -0.033151962
FINAL SINGLE POINT ENERGY      -514.846382413271
Dispersion correction            ... Starting D4
                    ***********************HURRAY********************

CARTESIAN COORDINATES (ANGSTROEM)
---------------------------------
  C     -3.006841    2.296850    0.006782
  C     -4.387089    2.020942   -0.005109
  C     -4.872149    0.715505   -0.006401
  C     -3.985190   -0.368043    0.003551
  C     -2.610953   -0.107468    0.015566
  C     -2.125685    1.199746    0.017658
  H     -5.097859    2.852271   -0.013617
  H     -5.952670    0.540616   -0.015575
  H     -1.049549    1.340980    0.029195
  H     -1.918043   -0.951354    0.024211
  O     -4.394307   -1.664536    0.002578
  H     -5.359684   -1.699114   -0.005915
  N     -2.635010    3.653516    0.008900
  C     -1.445539    4.360053    0.000250
  H     -3.417225    4.302555    0.016008
  C     -0.129999    3.612203   -0.017914
  H     -0.045698    2.966945   -0.905989
  H     -0.015538    2.979866    0.876112
  H      0.670882    4.360985   -0.035907
  O     -1.487885    5.578181    0.005637

 Multiplicity           Mult            ....    1
 Number of Electrons    NEL             ....   80
 Basis Dimension        Dim             ....  199

ORBITAL ENERGIES
----------------

  NO   OCC          E(Eh)            E(eV)
   0   2.0000     -19.166288      -521.5412
   1   2.0000     -19.096347      -519.6380
   2   2.0000     -14.361627      -390.7997
   3   2.0000     -10.288922      -279.9758
   4   2.0000     -10.250194      -278.9220
   5   2.0000     -10.239139      -278.6211
   6   2.0000     -10.200700      -277.5752
   7   2.0000     -10.198901      -277.5262
   8   2.0000     -10.197506      -277.4882
   9   2.0000     -10.194813      -277.4150
  10   2.0000     -10.192397      -277.3492
  11   2.0000      -1.053193       -28.6588
  12   2.0000      -1.026584       -27.9348
  13   2.0000      -0.927521       -25.2391
  14   2.0000      -0.842583       -22.9278
  15   2.0000      -0.754638       -20.5348
  16   2.0000      -0.740994       -20.1635
  17   2.0000      -0.729420       -19.8485
  18   2.0000      -0.643219       -17.5029
  19   2.0000      -0.616861       -16.7856
  20   2.0000      -0.579613       -15.7721
  21   2.0000      -0.554305       -15.0834
  22   2.0000      -0.534226       -14.5370
  23   2.0000      -0.485420       -13.2089
  24   2.0000      -0.464281       -12.6337
  25   2.0000      -0.455115       -12.3843
  26   2.0000      -0.448664       -12.2088
  27   2.0000      -0.433313       -11.7910
  28   2.0000      -0.421623       -11.4729
  29   2.0000      -0.418267       -11.3816
  30   2.0000      -0.405399       -11.0315
  31   2.0000      -0.396573       -10.7913
  32   2.0000      -0.388563       -10.5733
  33   2.0000      -0.378979       -10.3125
  34   2.0000      -0.352014        -9.5788
  35   2.0000      -0.348012        -9.4699
  36   2.0000      -0.290464        -7.9039
  37   2.0000      -0.266250        -7.2450
  38   2.0000      -0.255116        -6.9420
  39   2.0000      -0.206512        -5.6195
  40   0.0000      -0.020096        -0.5468
  41   0.0000      -0.008258        -0.2247
  42   0.0000       0.042362         1.1527
  43   0.0000       0.042574         1.1585
  44   0.0000       0.054776         1.4905

MULLIKEN ATOMIC CHARGES
-----------------------
   0 C :    0.151651
   1 C :   -0.026335
   2 C :   -0.058348
   3 C :    0.179329
   4 C :   -0.034804
   5 C :   -0.050782
   6 H :   -0.032119
   7 H :   -0.035840
   8 H :   -0.046628
   9 H :   -0.018134
  10 O :   -0.191435
  11 H :    0.174706
  12 N :   -0.055968
  13 C :    0.022365
  14 H :    0.116135
  15 C :    0.022022
  16 H :    0.046064
  17 H :    0.047012
  18 H :    0.031779
  19 O :   -0.240669
Sum of atomic charges:   -0.0000000

LOEWDIN ATOMIC CHARGES
----------------------
   0 C :    0.010528
   1 C :   -0.039528
   2 C :   -0.068333
   3 C :    0.035545
   4 C :   -0.039709
   5 C :   -0.044508
   6 H :    0.026198
   7 H :    0.025333
   8 H :    0.026445
   9 H :    0.033745
  10 O :   -0.055297
  11 H :    0.091651
  12 N :    0.003656
  13 C :    0.072488
  14 H :    0.085863
  15 C :   -0.077253
  16 H :    0.040318
  17 H :    0.040516
  18 H :    0.043091
  19 O :   -0.210749

  Mayer bond orders larger than 0.100000
B(  0-C ,  1-C ) :   1.3381 B(  0-C ,  5-C ) :   1.3303 B(  0-C , 12-N ) :   1.0870
B(  1-C ,  2-C ) :   1.3900 B(  1-C ,  6-H ) :   0.9774 B(  2-C ,  3-C ) :   1.3133
B(  2-C ,  7-H ) :   0.9792 B(  3-C ,  4-C ) :   1.3558 B(  3-C , 10-O ) :   1.1865
B(  4-C ,  5-C ) :   1.3755 B(  4-C ,  9-H ) :   0.9871 B(  5-C ,  8-H ) :   0.9899
B( 10-O , 11-H ) :   0.9647 B( 12-N , 13-C ) :   1.1225 B( 12-N , 14-H ) :   0.9001
B( 13-C , 15-C ) :   1.0460 B( 13-C , 19-O ) :   2.0920 B( 15-C , 16-H ) :   0.9412
B( 15-C , 17-H ) :   0.9405 B( 15-C , 18-H ) :   0.9437

Dispersion correction           -0.033152511
FINAL SINGLE POINT ENERGY      -514.846382958176

DIPOLE MOMENT
-------------
                                X             Y             Z
Electronic contribution:     -3.63821      -0.23544       0.04329
Nuclear contribution   :      2.88825      -0.83598      -0.05164
                        -----------------------------------------
Total Dipole Moment    :     -0.74996      -1.07142      -0.00834
                        -----------------------------------------
Magnitude (a.u.)       :      1.30784
Magnitude (Debye)      :      3.32427

Dispersion correction in the Hessian             ... Starting D4

VIBRATIONAL FREQUENCIES
-----------------------

Scaling factor for frequencies =  1.000000000  (already applied!)

   0:         0.00 cm**-1
   1:         0.00 cm**-1
   2:         0.00 cm**-1
   3:         0.00 cm**-1
   4:         0.00 cm**-1
   5:         0.00 cm**-1
   6:       -47.82 cm**-1 ***imaginary mode***
   7:        69.99 cm**-1
   8:       165.50 cm**-1
   9:       173.50 cm**-1
  10:       265.86 cm**-1
  11:       300.24 cm**-1
  12:       349.81 cm**-1
  13:       357.41 cm**-1
  14:       376.99 cm**-1
  15:       415.91 cm**-1
  16:       426.62 cm**-1
  17:       534.83 cm**-1
  18:       543.15 cm**-1
  19:       550.89 cm**-1
  20:       604.46 cm**-1
  21:       661.30 cm**-1
  22:       717.07 cm**-1
  23:       730.72 cm**-1
  24:       784.44 cm**-1
  25:       812.97 cm**-1
  26:       850.28 cm**-1
  27:       852.45 cm**-1
  28:       940.54 cm**-1
  29:       944.63 cm**-1
  30:       973.81 cm**-1
  31:      1012.33 cm**-1
  32:      1019.85 cm**-1
  33:      1042.65 cm**-1
  34:      1130.44 cm**-1
  35:      1186.93 cm**-1
  36:      1190.11 cm**-1
  37:      1249.57 cm**-1
  38:      1314.30 cm**-1
  39:      1332.99 cm**-1
  40:      1345.06 cm**-1
  41:      1383.08 cm**-1
  42:      1403.84 cm**-1
  43:      1447.74 cm**-1
  44:      1455.38 cm**-1
  45:      1460.60 cm**-1
  46:      1521.93 cm**-1
  47:      1563.03 cm**-1
  48:      1648.05 cm**-1
  49:      1691.98 cm**-1
  50:      1796.29 cm**-1
  51:      3042.74 cm**-1
  52:      3124.95 cm**-1
  53:      3158.49 cm**-1
  54:      3167.33 cm**-1
  55:      3175.58 cm**-1
  56:      3199.35 cm**-1
  57:      3266.47 cm**-1
  58:      3577.93 cm**-1
  59:      3821.64 cm**-1

IR SPECTRUM
-----------

 Mode   freq       eps      Int      T**2         TX        TY        TZ
       cm**-1   L/(mol*cm) km/mol    a.u.
----------------------------------------------------------------------------
  7:     69.99   0.000354    1.79  0.001578  (-0.000317  0.000296 -0.039722)
  8:    165.50   0.000333    1.68  0.000627  ( 0.024869  0.000727  0.002847)
  9:    173.50   0.000210    1.06  0.000377  (-0.004829 -0.000600  0.018804)
 10:    265.86   0.000444    2.24  0.000521  (-0.000048 -0.000092  0.022833)
 11:    300.24   0.000454    2.29  0.000472  (-0.019926 -0.008654 -0.000083)
 12:    349.81   0.020416  103.17  0.018213  ( 0.001137 -0.000376 -0.134950)
 13:    357.41   0.000567    2.86  0.000495  (-0.021536 -0.005540  0.000420)
 14:    376.99   0.000622    3.14  0.000515  (-0.000506 -0.000970  0.022658)
 15:    415.91   0.003284   16.60  0.002464  (-0.013639 -0.047725 -0.000442)
 16:    426.62   0.000115    0.58  0.000084  (-0.000245 -0.000828  0.009139)
 17:    534.83   0.002826   14.28  0.001649  (-0.001031  0.000123 -0.040597)
 18:    543.15   0.000155    0.78  0.000089  ( 0.003728  0.002103 -0.008395)
 19:    550.89   0.005243   26.50  0.002970  (-0.052015 -0.016221  0.001238)
 20:    604.46   0.003356   16.96  0.001733  ( 0.015122  0.038783  0.000094)
 21:    661.30   0.000362    1.83  0.000171  ( 0.011157  0.006809  0.000080)
 22:    717.07   0.010346   52.28  0.004502  (-0.000194 -0.001005  0.067092)
 23:    730.72   0.000860    4.35  0.000367  ( 0.000558  0.000291 -0.019156)
 24:    784.44   0.000419    2.12  0.000167  ( 0.000203 -0.012894  0.000605)
 25:    812.97   0.002043   10.32  0.000784  ( 0.000147  0.000158 -0.028003)
 26:    850.28   0.009327   47.14  0.003423  (-0.000227 -0.002583 -0.058450)
 27:    852.45   0.002348   11.86  0.000859  (-0.007357 -0.027889  0.005248)
 28:    940.54   0.000962    4.86  0.000319  ( 0.017582 -0.003182 -0.000126)
 29:    944.63   0.000045    0.23  0.000015  (-0.000636  0.000091  0.003792)
 30:    973.81   0.000017    0.09  0.000006  (-0.000083 -0.000144 -0.002348)
 31:   1012.33   0.004925   24.89  0.001518  ( 0.022879  0.031539 -0.000115)
 32:   1019.85   0.002541   12.84  0.000777  (-0.015639 -0.023083  0.000182)
 33:   1042.65   0.001226    6.20  0.000367  (-0.000514 -0.000442 -0.019144)
 34:   1130.44   0.002109   10.66  0.000582  ( 0.023228  0.006512  0.000390)
 35:   1186.93   0.007962   40.24  0.002093  (-0.002700 -0.045673 -0.000024)
 36:   1190.11   0.029112  147.12  0.007634  ( 0.027613  0.082892 -0.000076)
 37:   1249.57   0.004127   20.86  0.001031  (-0.024275  0.021007  0.000308)
 38:   1314.30   0.045502  229.95  0.010804  ( 0.056827  0.087032 -0.000021)
 39:   1332.99   0.010199   51.54  0.002388  ( 0.022720  0.043260 -0.000227)
 40:   1345.06   0.002349   11.87  0.000545  ( 0.014983  0.017900 -0.000170)
 41:   1383.08   0.002615   13.21  0.000590  ( 0.009430  0.022383  0.000335)
 42:   1403.84   0.065820  332.63  0.014631  ( 0.098609  0.070052 -0.000355)
 43:   1447.74   0.000073    0.37  0.000016  (-0.003751 -0.001247 -0.000260)
 44:   1455.38   0.005046   25.50  0.001082  ( 0.010638  0.031121 -0.000488)
 45:   1460.60   0.001948    9.84  0.000416  (-0.000404 -0.000011  0.020396)
 46:   1521.93   0.002291   11.58  0.000470  ( 0.014595 -0.016024 -0.000215)
 47:   1563.03   0.075038  379.21  0.014981  ( 0.053805  0.109938 -0.000027)
 48:   1648.05   0.000896    4.53  0.000170  ( 0.006953  0.011011  0.000028)
 49:   1691.98   0.001177    5.95  0.000217  (-0.004071 -0.014159 -0.000041)
 50:   1796.29   0.102479  517.89  0.017803  ( 0.029632  0.130097  0.000317)
 51:   3042.74   0.000434    2.19  0.000045  (-0.003366  0.005759  0.000026)
 52:   3124.95   0.000876    4.42  0.000087  ( 0.000035  0.000094 -0.009350)
 53:   3158.49   0.003426   17.32  0.000339  (-0.009753 -0.015601 -0.000041)
 54:   3167.33   0.001095    5.53  0.000108  (-0.007353 -0.007334  0.000054)
 55:   3175.58   0.001541    7.79  0.000151  ( 0.010824 -0.005856  0.000094)
 56:   3199.35   0.000724    3.66  0.000071  ( 0.000588 -0.008380  0.000029)
 57:   3266.47   0.000172    0.87  0.000016  ( 0.004016 -0.000503  0.000110)
 58:   3577.93   0.004928   24.90  0.000430  (-0.014954  0.014357  0.000202)
 59:   3821.64   0.016695   84.37  0.001363  ( 0.031446  0.019348  0.000222)

--------------------------
THERMOCHEMISTRY AT 298.15K
--------------------------

Temperature         ... 298.15 K
Pressure            ... 1.00 atm
Total Mass          ... 151.16 AMU

Throughout the following assumptions are being made:
  (1) The electronic state is orbitally nondegenerate
  (2) There are no thermally accessible electronically excited states
  (3) Hindered rotations indicated by low frequency modes are not
      treated as such but are treated as vibrations and this may
      cause some error
  (4) All equations used are the standard statistical mechanics
      equations for an ideal gas
  (5) All vibrations are strictly harmonic

freq.      69.99  E(vib)   ...       0.50
freq.     165.50  E(vib)   ...       0.39
freq.     173.50  E(vib)   ...       0.38
freq.     265.86  E(vib)   ...       0.29
freq.     300.24  E(vib)   ...       0.26
freq.     349.81  E(vib)   ...       0.23
freq.     357.41  E(vib)   ...       0.22
freq.     376.99  E(vib)   ...       0.21
freq.     415.91  E(vib)   ...       0.18
freq.     426.62  E(vib)   ...       0.18
freq.     534.83  E(vib)   ...       0.13
freq.     543.15  E(vib)   ...       0.12
freq.     550.89  E(vib)   ...       0.12
freq.     604.46  E(vib)   ...       0.10
freq.     661.30  E(vib)   ...       0.08
freq.     717.07  E(vib)   ...       0.07
freq.     730.72  E(vib)   ...       0.06
freq.     784.44  E(vib)   ...       0.05
freq.     812.97  E(vib)   ...       0.05
freq.     850.28  E(vib)   ...       0.04
freq.     852.45  E(vib)   ...       0.04
freq.     940.54  E(vib)   ...       0.03
freq.     944.63  E(vib)   ...       0.03
freq.     973.81  E(vib)   ...       0.03
freq.    1012.33  E(vib)   ...       0.02
freq.    1019.85  E(vib)   ...       0.02
freq.    1042.65  E(vib)   ...       0.02
freq.    1130.44  E(vib)   ...       0.01
freq.    1186.93  E(vib)   ...       0.01
freq.    1190.11  E(vib)   ...       0.01
freq.    1249.57  E(vib)   ...       0.01
freq.    1314.30  E(vib)   ...       0.01
freq.    1332.99  E(vib)   ...       0.01
freq.    1345.06  E(vib)   ...       0.01
freq.    1383.08  E(vib)   ...       0.01
freq.    1403.84  E(vib)   ...       0.00
freq.    1447.74  E(vib)   ...       0.00
freq.    1455.38  E(vib)   ...       0.00
freq.    1460.60  E(vib)   ...       0.00
freq.    1521.93  E(vib)   ...       0.00
freq.    1563.03  E(vib)   ...       0.00
freq.    1648.05  E(vib)   ...       0.00
freq.    1691.98  E(vib)   ...       0.00
freq.    1796.29  E(vib)   ...       0.00
freq.    3042.74  E(vib)   ...       0.00
freq.    3124.95  E(vib)   ...       0.00
freq.    3158.49  E(vib)   ...       0.00
freq.    3167.33  E(vib)   ...       0.00
freq.    3175.58  E(vib)   ...       0.00
freq.    3199.35  E(vib)   ...       0.00
freq.    3266.47  E(vib)   ...       0.00
freq.    3577.93  E(vib)   ...       0.00
freq.    3821.64  E(vib)   ...       0.00

------------
INNER ENERGY
------------

The inner energy is: U= E(el) + E(ZPE) + E(vib) + E(rot) + E(trans)
    E(el)   - is the total energy from the electronic structure calculation
              = E(kin-el) + E(nuc-el) + E(el-el) + E(nuc-nuc)
    E(ZPE)  - the the zero temperature vibrational energy from the frequency calculation
    E(vib)  - the the finite temperature correction to E(ZPE) due to population
              of excited vibrational states
    E(rot)  - is the rotational thermal energy
    E(trans)- is the translational thermal energy

Summary of contributions to the inner energy U:
Electronic energy                ...   -514.84638296 Eh
Zero point energy                ...      0.15977704 Eh     100.26 kcal/mol
Thermal vibrational correction   ...      0.00626947 Eh       3.93 kcal/mol
Thermal rotational correction    ...      0.00141627 Eh       0.89 kcal/mol
Thermal translational correction ...      0.00141627 Eh       0.89 kcal/mol
-----------------------------------------------------------------------
Total thermal energy                   -514.67750390 Eh

Summary of corrections to the electronic energy:
(perhaps to be used in another calculation)
Total thermal correction                  0.00910202 Eh       5.71 kcal/mol
Non-thermal (ZPE) correction              0.15977704 Eh     100.26 kcal/mol
-----------------------------------------------------------------------
Total correction                          0.16887905 Eh     105.97 kcal/mol

--------
ENTHALPY
--------

The enthalpy is H = U + kB*T
                kB is Boltzmann's constant
Total free energy                 ...   -514.67750390 Eh
Thermal Enthalpy correction       ...      0.00094421 Eh       0.59 kcal/mol
-----------------------------------------------------------------------
Total Enthalpy                    ...   -514.67655970 Eh

Note: Only C1 symmetry has been detected, increase convergence thresholds
      if your molecule has a higher symmetry. Symmetry factor of 1.0 is
      used for the rotational entropy correction.

Note: Rotational entropy computed according to Herzberg
Infrared and Raman Spectra, Chapter V,1, Van Nostrand Reinhold, 1945
Point Group:  C1, Symmetry Number:   1
Rotational constants in cm-1:     0.114289     0.018035     0.015624

Vibrational entropy computed according to the QRRHO of S. Grimme
Chem.Eur.J. 2012 18 9955

-------
ENTROPY
-------

The entropy contributions are T*S = T*(S(el)+S(vib)+S(rot)+S(trans))
     S(el)   - electronic entropy
     S(vib)  - vibrational entropy
     S(rot)  - rotational entropy
     S(trans)- translational entropy
The entropies will be listed as multiplied by the temperature to get
units of energy

Electronic entropy                ...      0.00000000 Eh      0.00 kcal/mol
Vibrational entropy               ...      0.01006686 Eh      6.32 kcal/mol
Rotational entropy                ...      0.01439385 Eh      9.03 kcal/mol
Translational entropy             ...      0.01945645 Eh     12.21 kcal/mol
-----------------------------------------------------------------------
Final entropy term                ...      0.04391716 Eh     27.56 kcal/mol

In case the symmetry of your molecule has not been determined correctly
or in case you have a reason to use a different symmetry number we print
out the resulting rotational entropy values for sn=1,12 :
 --------------------------------------------------------
|  sn= 1 | S(rot)=       0.01439385 Eh      9.03 kcal/mol|
|  sn= 2 | S(rot)=       0.01373940 Eh      8.62 kcal/mol|
|  sn= 3 | S(rot)=       0.01335656 Eh      8.38 kcal/mol|
|  sn= 4 | S(rot)=       0.01308494 Eh      8.21 kcal/mol|
|  sn= 5 | S(rot)=       0.01287425 Eh      8.08 kcal/mol|
|  sn= 6 | S(rot)=       0.01270211 Eh      7.97 kcal/mol|
|  sn= 7 | S(rot)=       0.01255656 Eh      7.88 kcal/mol|
|  sn= 8 | S(rot)=       0.01243048 Eh      7.80 kcal/mol|
|  sn= 9 | S(rot)=       0.01231928 Eh      7.73 kcal/mol|
|  sn=10 | S(rot)=       0.01221980 Eh      7.67 kcal/mol|

                             ****ORCA TERMINATED NORMALLY****
TOTAL RUN TIME: 0 days 0 hours 32 minutes 14 seconds 801 msec
