                         Program Version 5.0.4 -  RELEASE  -
|  1> !B3LYP DEF2-SVP OPT FREQ D4 SOSCF
|  2>
|  3> * xyz 1 1
|  4>    C       -3.41158        0.75498       -0.04706
|  5>    C       -4.59891        0.02220       -0.03110
|  6>    C       -4.55882       -1.37093        0.00154
|  7>    C       -3.33276       -2.03370        0.01801
|  8>    C       -2.14610       -1.30273        0.00151
|  9>    C       -2.18476        0.09043       -0.03114
| 10>    H       -5.55927        0.53271       -0.04449
| 11>    H       -5.48475       -1.94054        0.01383
| 12>    H       -3.30205       -3.12027        0.04327
| 13>    H       -1.18947       -1.81913        0.01378
| 14>    H       -1.25477        0.65437       -0.04454
| 15>    N       -3.45014        2.11918       -0.07872
| 16>    H       -4.33362        2.58636        0.09225
| 17>    H       -2.59440        2.63549        0.09211
| 18>    N        6.52996        3.95513       -1.45976
| 19>    O        5.72285        4.85519       -1.47124
| 20>    O        6.18980        2.96195       -0.86013
| 21> **                         ****END OF INPUT****
 Total Charge           Charge          ....    1
 Multiplicity           Mult            ....    1
 Number of Electrons    NEL             ....   72
Dispersion correction           -0.020493001
FINAL SINGLE POINT ENERGY      -491.728548279879
Dispersion correction            ... Starting D4
Dispersion correction           -0.020424115
FINAL SINGLE POINT ENERGY      -491.756516518001
Dispersion correction            ... Starting D4
Dispersion correction           -0.020376256
FINAL SINGLE POINT ENERGY      -491.768819636393
Dispersion correction            ... Starting D4
FINAL SINGLE POINT ENERGY      -491.770941321458
FINAL SINGLE POINT ENERGY      -491.771256132123
FINAL SINGLE POINT ENERGY      -491.771362909216
FINAL SINGLE POINT ENERGY      -491.771436373590
FINAL SINGLE POINT ENERGY      -491.771497759500
FINAL SINGLE POINT ENERGY      -491.771546053039
FINAL SINGLE POINT ENERGY      -491.771591803521
FINAL SINGLE POINT ENERGY      -491.771979165506
FINAL SINGLE POINT ENERGY      -491.772018887834
FINAL SINGLE POINT ENERGY      -491.772056284633
FINAL SINGLE POINT ENERGY      -491.772080196661
FINAL SINGLE POINT ENERGY      -491.772126834419
FINAL SINGLE POINT ENERGY      -491.772171487371
FINAL SINGLE POINT ENERGY      -491.772181478177
Dispersion correction           -0.020384161
FINAL SINGLE POINT ENERGY      -491.772184617481
Dispersion correction            ... Starting D4
Dispersion correction           -0.020383577
FINAL SINGLE POINT ENERGY      -491.772185367076
Dispersion correction            ... Starting D4
                    ***********************HURRAY********************

CARTESIAN COORDINATES (ANGSTROEM)
---------------------------------
  C     -3.817324    0.767281    0.007118
  C     -4.794173   -0.250734    0.231726
  C     -4.420365   -1.581229    0.207438
  C     -3.080780   -1.942963   -0.038327
  C     -2.110815   -0.945900   -0.261859
  C     -2.461815    0.391197   -0.241942
  H     -5.831857    0.034000    0.421887
  H     -5.169509   -2.356840    0.380385
  H     -2.794715   -2.996612   -0.055528
  H     -1.074035   -1.230920   -0.452662
  H     -1.713066    1.168035   -0.416037
  N     -4.170410    2.067851    0.029950
  H     -5.128452    2.350764    0.206076
  H     -3.487736    2.801295   -0.126866
  N      7.254895    3.743235   -1.302368
  O      6.882794    4.794743   -1.649226
  O      6.958573    2.767488   -0.731645

 Multiplicity           Mult            ....    1
 Number of Electrons    NEL             ....   72
 Basis Dimension        Dim             ....  175

ORBITAL ENERGIES
----------------

  NO   OCC          E(Eh)            E(eV)
   0   2.0000     -19.421174      -528.4770
   1   2.0000     -19.421061      -528.4739
   2   2.0000     -14.742652      -401.1680
   3   2.0000     -14.513052      -394.9202
   4   2.0000     -10.391042      -282.7546
   5   2.0000     -10.332082      -281.1502
   6   2.0000     -10.331131      -281.1244
   7   2.0000     -10.330914      -281.1185
   8   2.0000     -10.326855      -281.0080
   9   2.0000     -10.325753      -280.9780
  10   2.0000      -1.451510       -39.4976
  11   2.0000      -1.319882       -35.9158
  12   2.0000      -1.079155       -29.3653
  13   2.0000      -0.972272       -26.4569
  14   2.0000      -0.879751       -23.9392
  15   2.0000      -0.860127       -23.4053
  16   2.0000      -0.799421       -21.7533
  17   2.0000      -0.752599       -20.4793
  18   2.0000      -0.746252       -20.3066
  19   2.0000      -0.742926       -20.2160
  20   2.0000      -0.737098       -20.0575
  21   2.0000      -0.723885       -19.6979
  22   2.0000      -0.673079       -18.3154
  23   2.0000      -0.668775       -18.1983
  24   2.0000      -0.620708       -16.8903
  25   2.0000      -0.576274       -15.6812
  26   2.0000      -0.567001       -15.4289
  27   2.0000      -0.559249       -15.2179
  28   2.0000      -0.543891       -14.8000
  29   2.0000      -0.538026       -14.6404
  30   2.0000      -0.536878       -14.6092
  31   2.0000      -0.498771       -13.5723
  32   2.0000      -0.480238       -13.0679
  33   2.0000      -0.459541       -12.5048
  34   2.0000      -0.394701       -10.7404
  35   2.0000      -0.334927        -9.1138
  36   0.0000      -0.325806        -8.8656
  37   0.0000      -0.229155        -6.2356
  38   0.0000      -0.140316        -3.8182
  39   0.0000      -0.129911        -3.5351
  40   0.0000      -0.075467        -2.0536

MULLIKEN ATOMIC CHARGES
-----------------------
   0 C :    0.048379
   1 C :    0.023168
   2 C :    0.026703
   3 C :    0.057917
   4 C :    0.026401
   5 C :    0.021436
   6 H :    0.010377
   7 H :    0.034502
   8 H :    0.037411
   9 H :    0.028037
  10 H :    0.002918
  11 N :    0.015478
  12 H :    0.155506
  13 H :    0.152653
  14 N :    0.373759
  15 O :   -0.005344
  16 O :   -0.009302
Sum of atomic charges:    1.0000000

LOEWDIN ATOMIC CHARGES
----------------------
   0 C :    0.063632
   1 C :   -0.013286
   2 C :    0.013943
   3 C :    0.039938
   4 C :    0.010675
   5 C :   -0.017203
   6 H :    0.043445
   7 H :    0.050840
   8 H :    0.049110
   9 H :    0.048052
  10 H :    0.040221
  11 N :    0.105282
  12 H :    0.103918
  13 H :    0.102318
  14 N :    0.284413
  15 O :    0.039177
  16 O :    0.035523

  Mayer bond orders larger than 0.100000
B(  0-C ,  1-C ) :   1.2015 B(  0-C ,  5-C ) :   1.2028 B(  0-C , 11-N ) :   1.3718
B(  1-C ,  2-C ) :   1.4718 B(  1-C ,  6-H ) :   0.9882 B(  2-C ,  3-C ) :   1.3037
B(  2-C ,  7-H ) :   0.9813 B(  3-C ,  4-C ) :   1.3055 B(  3-C ,  8-H ) :   0.9869
B(  3-C , 14-N ) :   0.1062 B(  4-C ,  5-C ) :   1.4684 B(  4-C ,  9-H ) :   0.9815
B(  5-C , 10-H ) :   0.9873 B( 11-N , 12-H ) :   0.9338 B( 11-N , 13-H ) :   0.9348
B( 11-N , 14-N ) :   0.1121 B( 14-N , 15-O ) :   1.7429 B( 14-N , 16-O ) :   1.7395
B( 15-O , 16-O ) :   0.3521

Dispersion correction           -0.020383394
FINAL SINGLE POINT ENERGY      -491.772185564067

DIPOLE MOMENT
-------------
                                X             Y             Z
Electronic contribution:     23.31904       8.84323      -2.70053
Nuclear contribution   :    -22.98287      -7.64083       2.62991
                        -----------------------------------------
Total Dipole Moment    :      0.33617       1.20240      -0.07061
                        -----------------------------------------
Magnitude (a.u.)       :      1.25050
Magnitude (Debye)      :      3.17853

Dispersion correction in the Hessian             ... Starting D4

VIBRATIONAL FREQUENCIES
-----------------------

Scaling factor for frequencies =  1.000000000  (already applied!)

   0:         0.00 cm**-1
   1:         0.00 cm**-1
   2:         0.00 cm**-1
   3:         0.00 cm**-1
   4:         0.00 cm**-1
   5:         0.00 cm**-1
   6:        -9.29 cm**-1 ***imaginary mode***
   7:         4.07 cm**-1
   8:         4.41 cm**-1
   9:         6.10 cm**-1
  10:         9.86 cm**-1
  11:        32.61 cm**-1
  12:       201.71 cm**-1
  13:       388.44 cm**-1
  14:       393.97 cm**-1
  15:       459.38 cm**-1
  16:       505.46 cm**-1
  17:       517.10 cm**-1
  18:       531.35 cm**-1
  19:       611.15 cm**-1
  20:       634.61 cm**-1
  21:       670.66 cm**-1
  22:       800.69 cm**-1
  23:       818.84 cm**-1
  24:       835.71 cm**-1
  25:       929.37 cm**-1
  26:       995.45 cm**-1
  27:      1005.28 cm**-1
  28:      1022.76 cm**-1
  29:      1028.53 cm**-1
  30:      1029.76 cm**-1
  31:      1122.51 cm**-1
  32:      1173.74 cm**-1
  33:      1191.99 cm**-1
  34:      1350.52 cm**-1
  35:      1365.91 cm**-1
  36:      1385.92 cm**-1
  37:      1398.08 cm**-1
  38:      1500.09 cm**-1
  39:      1523.36 cm**-1
  40:      1564.79 cm**-1
  41:      1631.23 cm**-1
  42:      1666.65 cm**-1
  43:      2020.14 cm**-1
  44:      3187.96 cm**-1
  45:      3191.05 cm**-1
  46:      3203.38 cm**-1
  47:      3209.39 cm**-1
  48:      3218.42 cm**-1
  49:      3565.34 cm**-1
  50:      3687.55 cm**-1

IR SPECTRUM
-----------

 Mode   freq       eps      Int      T**2         TX        TY        TZ
       cm**-1   L/(mol*cm) km/mol    a.u.
----------------------------------------------------------------------------
  7:      4.07   0.000000    0.00  0.000000  ( 0.000000  0.000000  0.000000)
  8:      4.41   0.000000    0.00  0.000000  ( 0.000000  0.000000  0.000000)
  9:      6.10   0.000019    0.10  0.000989  (-0.005881  0.006949  0.030107)
 10:      9.86   0.000064    0.33  0.002036  ( 0.016165  0.004712  0.041862)
 11:     32.61   0.000330    1.67  0.003154  ( 0.015514  0.020277  0.050021)
 12:    201.71   0.001405    7.10  0.002174  ( 0.008192  0.001443  0.045876)
 13:    388.44   0.000409    2.07  0.000329  (-0.017199 -0.004186  0.003942)
 14:    393.97   0.000003    0.02  0.000003  (-0.000241 -0.000071 -0.001603)
 15:    459.38   0.033402  168.80  0.022690  ( 0.026957  0.004396  0.148136)
 16:    505.46   0.002653   13.41  0.001638  ( 0.008279  0.001480  0.039586)
 17:    517.10   0.000110    0.56  0.000067  ( 0.003034  0.000686  0.007550)
 18:    531.35   0.064975  328.36  0.038160  (-0.180572 -0.071739  0.020179)
 19:    611.15   0.000045    0.23  0.000023  (-0.004375 -0.001752  0.000837)
 20:    634.61   0.872296  4408.23  0.428945  (-0.610618 -0.227868  0.064552)
 21:    670.66   0.007240   36.59  0.003369  ( 0.012004  0.002515  0.056729)
 22:    800.69   0.007001   35.38  0.002729  (-0.009767 -0.001893 -0.051281)
 23:    818.84   0.000022    0.11  0.000008  ( 0.000770  0.000099  0.002802)
 24:    835.71   0.003204   16.19  0.001196  (-0.029079 -0.018360  0.003686)
 25:    929.37   0.000969    4.89  0.000325  (-0.003287 -0.000548 -0.017723)
 26:    995.45   0.008557   43.24  0.002682  ( 0.050708  0.008718 -0.005925)
 27:   1005.28   0.000001    0.00  0.000000  (-0.000462 -0.000061 -0.000169)
 28:   1022.76   0.000007    0.03  0.000002  (-0.001371 -0.000378  0.000284)
 29:   1028.53   0.000009    0.04  0.000003  (-0.000599 -0.000263 -0.001493)
 30:   1029.76   0.002330   11.78  0.000706  ( 0.021814  0.014934 -0.002714)
 31:   1122.51   0.001422    7.19  0.000395  (-0.018723 -0.005308  0.004082)
 32:   1173.74   0.000045    0.23  0.000012  (-0.003269 -0.001091  0.000291)
 33:   1191.99   0.031243  157.89  0.008180  ( 0.087707  0.019620 -0.010106)
 34:   1350.52   0.000006    0.03  0.000001  ( 0.001079  0.000427  0.000004)
 35:   1365.91   1.085298  5484.65  0.247954  ( 0.468625  0.159500 -0.053898)
 36:   1385.92   0.189098  955.62  0.042579  ( 0.192389  0.071274 -0.022022)
 37:   1398.08   0.000011    0.06  0.000002  ( 0.001516  0.000438  0.000010)
 38:   1500.09   0.001492    7.54  0.000310  (-0.016527 -0.005055  0.003412)
 39:   1523.36   0.014953   75.57  0.003063  (-0.040281  0.037735  0.004074)
 40:   1564.79   0.000318    1.61  0.000064  (-0.007502 -0.002182  0.001571)
 41:   1631.23   0.023837  120.46  0.004560  ( 0.024685 -0.062822 -0.002043)
 42:   1666.65   0.077011  389.18  0.014420  ( 0.119319 -0.001520 -0.013430)
 43:   2020.14   0.067318  340.20  0.010399  ( 0.004530 -0.092678  0.042300)
 44:   3187.96   0.000481    2.43  0.000047  ( 0.005448 -0.004143 -0.000503)
 45:   3191.05   0.000159    0.80  0.000016  (-0.003157  0.002347  0.000295)
 46:   3203.38   0.001051    5.31  0.000102  ( 0.009817  0.002223 -0.001041)
 47:   3209.39   0.000004    0.02  0.000000  (-0.000284  0.000579  0.000029)
 48:   3218.42   0.000312    1.58  0.000030  ( 0.005257  0.001512 -0.000545)
 49:   3565.34   0.108580  548.72  0.009504  (-0.093563  0.025396  0.010234)
 50:   3687.55   0.012585   63.60  0.001065  ( 0.030963  0.007972 -0.006536)

--------------------------
THERMOCHEMISTRY AT 298.15K
--------------------------

Temperature         ... 298.15 K
Pressure            ... 1.00 atm
Total Mass          ... 139.13 AMU

Throughout the following assumptions are being made:
  (1) The electronic state is orbitally nondegenerate
  (2) There are no thermally accessible electronically excited states
  (3) Hindered rotations indicated by low frequency modes are not
      treated as such but are treated as vibrations and this may
      cause some error
  (4) All equations used are the standard statistical mechanics
      equations for an ideal gas
  (5) All vibrations are strictly harmonic

freq.       4.07  E(vib)   ...       0.59
freq.       4.41  E(vib)   ...       0.59
freq.       6.10  E(vib)   ...       0.58
freq.       9.86  E(vib)   ...       0.58
freq.      32.61  E(vib)   ...       0.55
freq.     201.71  E(vib)   ...       0.35
freq.     388.44  E(vib)   ...       0.20
freq.     393.97  E(vib)   ...       0.20
freq.     459.38  E(vib)   ...       0.16
freq.     505.46  E(vib)   ...       0.14
freq.     517.10  E(vib)   ...       0.13
freq.     531.35  E(vib)   ...       0.13
freq.     611.15  E(vib)   ...       0.10
freq.     634.61  E(vib)   ...       0.09
freq.     670.66  E(vib)   ...       0.08
freq.     800.69  E(vib)   ...       0.05
freq.     818.84  E(vib)   ...       0.05
freq.     835.71  E(vib)   ...       0.04
freq.     929.37  E(vib)   ...       0.03
freq.     995.45  E(vib)   ...       0.02
freq.    1005.28  E(vib)   ...       0.02
freq.    1022.76  E(vib)   ...       0.02
freq.    1028.53  E(vib)   ...       0.02
freq.    1029.76  E(vib)   ...       0.02
freq.    1122.51  E(vib)   ...       0.01
freq.    1173.74  E(vib)   ...       0.01
freq.    1191.99  E(vib)   ...       0.01
freq.    1350.52  E(vib)   ...       0.01
freq.    1365.91  E(vib)   ...       0.01
freq.    1385.92  E(vib)   ...       0.00
freq.    1398.08  E(vib)   ...       0.00
freq.    1500.09  E(vib)   ...       0.00
freq.    1523.36  E(vib)   ...       0.00
freq.    1564.79  E(vib)   ...       0.00
freq.    1631.23  E(vib)   ...       0.00
freq.    1666.65  E(vib)   ...       0.00
freq.    2020.14  E(vib)   ...       0.00
freq.    3187.96  E(vib)   ...       0.00
freq.    3191.05  E(vib)   ...       0.00
freq.    3203.38  E(vib)   ...       0.00
freq.    3209.39  E(vib)   ...       0.00
freq.    3218.42  E(vib)   ...       0.00
freq.    3565.34  E(vib)   ...       0.00
freq.    3687.55  E(vib)   ...       0.00

------------
INNER ENERGY
------------

The inner energy is: U= E(el) + E(ZPE) + E(vib) + E(rot) + E(trans)
    E(el)   - is the total energy from the electronic structure calculation
              = E(kin-el) + E(nuc-el) + E(el-el) + E(nuc-nuc)
    E(ZPE)  - the the zero temperature vibrational energy from the frequency calculation
    E(vib)  - the the finite temperature correction to E(ZPE) due to population
              of excited vibrational states
    E(rot)  - is the rotational thermal energy
    E(trans)- is the translational thermal energy

Summary of contributions to the inner energy U:
Electronic energy                ...   -491.77218556 Eh
Zero point energy                ...      0.12665545 Eh      79.48 kcal/mol
Thermal vibrational correction   ...      0.00765040 Eh       4.80 kcal/mol
Thermal rotational correction    ...      0.00141627 Eh       0.89 kcal/mol
Thermal translational correction ...      0.00141627 Eh       0.89 kcal/mol
-----------------------------------------------------------------------
Total thermal energy                   -491.63504717 Eh

Summary of corrections to the electronic energy:
(perhaps to be used in another calculation)
Total thermal correction                  0.01048294 Eh       6.58 kcal/mol
Non-thermal (ZPE) correction              0.12665545 Eh      79.48 kcal/mol
-----------------------------------------------------------------------
Total correction                          0.13713839 Eh      86.06 kcal/mol

--------
ENTHALPY
--------

The enthalpy is H = U + kB*T
                kB is Boltzmann's constant
Total free energy                 ...   -491.63504717 Eh
Thermal Enthalpy correction       ...      0.00094421 Eh       0.59 kcal/mol
-----------------------------------------------------------------------
Total Enthalpy                    ...   -491.63410296 Eh

Note: Only C1 symmetry has been detected, increase convergence thresholds
      if your molecule has a higher symmetry. Symmetry factor of 1.0 is
      used for the rotational entropy correction.

Note: Rotational entropy computed according to Herzberg
Infrared and Raman Spectra, Chapter V,1, Van Nostrand Reinhold, 1945
Point Group:  C1, Symmetry Number:   1
Rotational constants in cm-1:     0.074266     0.004135     0.003928

Vibrational entropy computed according to the QRRHO of S. Grimme
Chem.Eur.J. 2012 18 9955

-------
ENTROPY
-------

The entropy contributions are T*S = T*(S(el)+S(vib)+S(rot)+S(trans))
     S(el)   - electronic entropy
     S(vib)  - vibrational entropy
     S(rot)  - rotational entropy
     S(trans)- translational entropy
The entropies will be listed as multiplied by the temperature to get
units of energy

Electronic entropy                ...      0.00000000 Eh      0.00 kcal/mol
Vibrational entropy               ...      0.01714577 Eh     10.76 kcal/mol
Rotational entropy                ...      0.01594443 Eh     10.01 kcal/mol
Translational entropy             ...      0.01933899 Eh     12.14 kcal/mol
-----------------------------------------------------------------------
Final entropy term                ...      0.05242918 Eh     32.90 kcal/mol

In case the symmetry of your molecule has not been determined correctly
or in case you have a reason to use a different symmetry number we print
out the resulting rotational entropy values for sn=1,12 :
 --------------------------------------------------------
|  sn= 1 | S(rot)=       0.01594443 Eh     10.01 kcal/mol|
|  sn= 2 | S(rot)=       0.01528997 Eh      9.59 kcal/mol|
|  sn= 3 | S(rot)=       0.01490714 Eh      9.35 kcal/mol|
|  sn= 4 | S(rot)=       0.01463552 Eh      9.18 kcal/mol|
|  sn= 5 | S(rot)=       0.01442483 Eh      9.05 kcal/mol|
|  sn= 6 | S(rot)=       0.01425268 Eh      8.94 kcal/mol|
|  sn= 7 | S(rot)=       0.01410714 Eh      8.85 kcal/mol|
|  sn= 8 | S(rot)=       0.01398106 Eh      8.77 kcal/mol|
|  sn= 9 | S(rot)=       0.01386985 Eh      8.70 kcal/mol|
|  sn=10 | S(rot)=       0.01377037 Eh      8.64 kcal/mol|
|  sn=11 | S(rot)=       0.01368038 Eh      8.58 kcal/mol|
|  sn=12 | S(rot)=       0.01359823 Eh      8.53 kcal/mol|
 --------------------------------------------------------

-------------------
GIBBS FREE ENERGY
-------------------

                             ****ORCA TERMINATED NORMALLY****
TOTAL RUN TIME: 0 days 3 hours 6 minutes 48 seconds 858 msec
