                         Program Version 5.0.4 -  RELEASE  -
|  1> !B3LYP DEF2-SVP OPT FREQ D4 SOSCF
|  2>
|  3> * xyz 1 1
|  4>    C       -0.86689        2.09495       12.81668
|  5>    C        0.03680        1.09429       13.28775
|  6>    C        0.33728        0.00612       12.48928
|  7>    C       -0.24028       -0.12354       11.21092
|  8>    C       -1.13144        0.85939       10.73745
|  9>    C       -1.44731        1.95534       11.51944
| 10>    H        0.48279        1.19857       14.27985
| 11>    H        1.02785       -0.75756       12.85360
| 12>    H        0.00252       -0.98616       10.58701
| 13>    H       -1.57672        0.75632        9.74579
| 14>    H       -2.13908        2.71932       11.15621
| 15>    N       -1.16810        3.15942       13.58776
| 16>    H       -0.76585        3.27105       14.51194
| 17>    H       -1.81217        3.87503       13.26907
| 18>    N        1.16257       -1.09861       -5.20163
| 19>    O        0.32004       -1.67204       -5.78119
| 20>    O        1.47988       -0.63254       -4.17786
| 21> **                         ****END OF INPUT****
 Total Charge           Charge          ....    1
 Multiplicity           Mult            ....    1
 Number of Electrons    NEL             ....   72
Dispersion correction           -0.020413625
FINAL SINGLE POINT ENERGY      -491.774835035924
Dispersion correction            ... Starting D4
Dispersion correction           -0.020414937
FINAL SINGLE POINT ENERGY      -491.774906299367
Dispersion correction            ... Starting D4
Dispersion correction           -0.020415360
FINAL SINGLE POINT ENERGY      -491.774925708355
Dispersion correction            ... Starting D4
FINAL SINGLE POINT ENERGY      -491.774943408679
FINAL SINGLE POINT ENERGY      -491.774960052861
Dispersion correction           -0.020415857
FINAL SINGLE POINT ENERGY      -491.774958920426
Dispersion correction            ... Starting D4
Dispersion correction           -0.020415730
FINAL SINGLE POINT ENERGY      -491.774960139680
Dispersion correction            ... Starting D4
                    ***********************HURRAY********************

CARTESIAN COORDINATES (ANGSTROEM)
---------------------------------
  C     -0.871953    2.104908   12.861390
  C      0.036409    1.111195   13.337457
  C      0.336914    0.016945   12.547511
  C     -0.245866   -0.126203   11.272960
  C     -1.142495    0.849409   10.794988
  C     -1.457766    1.951665   11.568094
  H      0.486641    1.225712   14.326512
  H      1.031706   -0.741004   12.915583
  H     -0.002737   -0.993493   10.655732
  H     -1.593077    0.735643    9.806630
  H     -2.153216    2.710459   11.201249
  N     -1.172372    3.175634   13.624066
  H     -0.766193    3.296233   14.545397
  H     -1.818386    3.887581   13.301486
  N      1.189926   -1.146009   -5.434695
  O      0.296072   -1.600531   -6.031122
  O      1.548285   -0.738794   -4.401167

 Multiplicity           Mult            ....    1
 Number of Electrons    NEL             ....   72
 Basis Dimension        Dim             ....  175

ORBITAL ENERGIES
----------------

  NO   OCC          E(Eh)            E(eV)
   0   2.0000     -19.417317      -528.3721
   1   2.0000     -19.417208      -528.3691
   2   2.0000     -14.738885      -401.0654
   3   2.0000     -14.502437      -394.6314
   4   2.0000     -10.380908      -282.4789
   5   2.0000     -10.321777      -280.8698
   6   2.0000     -10.321516      -280.8627
   7   2.0000     -10.321486      -280.8619
   8   2.0000     -10.317202      -280.7454
   9   2.0000     -10.316833      -280.7353
  10   2.0000      -1.447630       -39.3920
  11   2.0000      -1.317224       -35.8435
  12   2.0000      -1.068807       -29.0837
  13   2.0000      -0.962751       -26.1978
  14   2.0000      -0.870143       -23.6778
  15   2.0000      -0.850670       -23.1479
  16   2.0000      -0.794080       -21.6080
  17   2.0000      -0.742971       -20.2173
  18   2.0000      -0.738872       -20.1057
  19   2.0000      -0.736547       -20.0425
  20   2.0000      -0.733290       -19.9538
  21   2.0000      -0.719056       -19.5665
  22   2.0000      -0.663462       -18.0537
  23   2.0000      -0.658898       -17.9295
  24   2.0000      -0.611351       -16.6357
  25   2.0000      -0.566701       -15.4207
  26   2.0000      -0.557762       -15.1775
  27   2.0000      -0.549683       -14.9576
  28   2.0000      -0.539298       -14.6750
  29   2.0000      -0.532644       -14.4940
  30   2.0000      -0.528161       -14.3720
  31   2.0000      -0.489659       -13.3243
  32   2.0000      -0.470892       -12.8136
  33   2.0000      -0.450073       -12.2471
  34   2.0000      -0.385231       -10.4827
  35   2.0000      -0.324738        -8.8366
  36   0.0000      -0.318903        -8.6778
  37   0.0000      -0.223624        -6.0851
  38   0.0000      -0.131077        -3.5668
  39   0.0000      -0.120418        -3.2767
  40   0.0000      -0.065826        -1.7912

MULLIKEN ATOMIC CHARGES
-----------------------
   0 C :    0.048749
   1 C :    0.020666
   2 C :    0.026269
   3 C :    0.055759
   4 C :    0.025567
   5 C :    0.020872
   6 H :    0.007213
   7 H :    0.030335
   8 H :    0.033012
   9 H :    0.028143
  10 H :    0.005695
  11 N :    0.013071
  12 H :    0.153476
  13 H :    0.152979
  14 N :    0.378224
  15 O :    0.001902
  16 O :   -0.001932
Sum of atomic charges:    1.0000000

LOEWDIN ATOMIC CHARGES
----------------------
   0 C :    0.062598
   1 C :   -0.016055
   2 C :    0.011600
   3 C :    0.035074
   4 C :    0.010424
   5 C :   -0.016888
   6 H :    0.042077
   7 H :    0.049039
   8 H :    0.047210
   9 H :    0.048075
  10 H :    0.041425
  11 N :    0.102267
  12 H :    0.102625
  13 H :    0.102335
  14 N :    0.288898
  15 O :    0.046470
  16 O :    0.042826

  Mayer bond orders larger than 0.100000
B(  0-C ,  1-C ) :   1.2053 B(  0-C ,  5-C ) :   1.2053 B(  0-C , 11-N ) :   1.3683
B(  1-C ,  2-C ) :   1.4691 B(  1-C ,  6-H ) :   0.9881 B(  2-C ,  3-C ) :   1.3055
B(  2-C ,  7-H ) :   0.9815 B(  3-C ,  4-C ) :   1.3063 B(  3-C ,  8-H ) :   0.9872
B(  3-C , 14-N ) :   0.1047 B(  4-C ,  5-C ) :   1.4682 B(  4-C ,  9-H ) :   0.9814
B(  5-C , 10-H ) :   0.9880 B( 11-N , 12-H ) :   0.9346 B( 11-N , 13-H ) :   0.9347
B( 11-N , 14-N ) :   0.1108 B( 14-N , 15-O ) :   1.7499 B( 14-N , 16-O ) :   1.7466
B( 15-O , 16-O ) :   0.3567

Dispersion correction           -0.020415758
FINAL SINGLE POINT ENERGY      -491.774960115349

DIPOLE MOMENT
-------------
                                X             Y             Z
Electronic contribution:      3.74572      -5.42858     -39.34494
Nuclear contribution   :     -3.76479       6.04472      38.31668
                        -----------------------------------------
Total Dipole Moment    :     -0.01908       0.61614      -1.02826
                        -----------------------------------------
Magnitude (a.u.)       :      1.19888
Magnitude (Debye)      :      3.04732

Dispersion correction in the Hessian             ... Starting D4

VIBRATIONAL FREQUENCIES
-----------------------

Scaling factor for frequencies =  1.000000000  (already applied!)

   0:         0.00 cm**-1
   1:         0.00 cm**-1
   2:         0.00 cm**-1
   3:         0.00 cm**-1
   4:         0.00 cm**-1
   5:         0.00 cm**-1
   6:       -18.55 cm**-1 ***imaginary mode***
   7:        -4.69 cm**-1 ***imaginary mode***
   8:         2.27 cm**-1
   9:         4.64 cm**-1
  10:         5.44 cm**-1
  11:        19.57 cm**-1
  12:       202.26 cm**-1
  13:       387.92 cm**-1
  14:       394.96 cm**-1
  15:       453.14 cm**-1
  16:       505.23 cm**-1
  17:       513.61 cm**-1
  18:       531.97 cm**-1
  19:       611.80 cm**-1
  20:       633.78 cm**-1
  21:       672.04 cm**-1
  22:       800.07 cm**-1
  23:       819.63 cm**-1
  24:       836.28 cm**-1
  25:       928.09 cm**-1
  26:       995.74 cm**-1
  27:      1005.00 cm**-1
  28:      1022.71 cm**-1
  29:      1027.61 cm**-1
  30:      1030.50 cm**-1
  31:      1122.45 cm**-1
  32:      1173.34 cm**-1
  33:      1192.25 cm**-1
  34:      1350.54 cm**-1
  35:      1368.45 cm**-1
  36:      1385.79 cm**-1
  37:      1397.37 cm**-1
  38:      1500.68 cm**-1
  39:      1523.84 cm**-1
  40:      1566.28 cm**-1
  41:      1630.84 cm**-1
  42:      1666.54 cm**-1
  43:      2034.55 cm**-1
  44:      3189.24 cm**-1
  45:      3190.39 cm**-1
  46:      3202.51 cm**-1
  47:      3208.54 cm**-1
  48:      3217.64 cm**-1
  49:      3567.80 cm**-1
  50:      3689.71 cm**-1

IR SPECTRUM
-----------

 Mode   freq       eps      Int      T**2         TX        TY        TZ
       cm**-1   L/(mol*cm) km/mol    a.u.
----------------------------------------------------------------------------
  8:      2.27   0.000000    0.00  0.000000  ( 0.000000  0.000000  0.000000)
  9:      4.64   0.000000    0.00  0.000000  ( 0.000000  0.000000  0.000000)
 10:      5.44   0.000168    0.85  0.009643  ( 0.037971  0.080066 -0.042311)
 11:     19.57   0.000262    1.33  0.004185  (-0.026758  0.056847 -0.015423)
 12:    202.26   0.001349    6.82  0.002081  ( 0.034982  0.023510 -0.017455)
 13:    387.92   0.000544    2.75  0.000438  ( 0.013226 -0.007470  0.014392)
 14:    394.96   0.000001    0.00  0.000001  ( 0.000575  0.000213 -0.000496)
 15:    453.14   0.033330  168.44  0.022953  (-0.117296 -0.081193  0.051016)
 16:    505.23   0.001169    5.91  0.000722  ( 0.021104  0.015641 -0.005635)
 17:    513.61   0.000013    0.07  0.000008  ( 0.001955  0.000770 -0.001851)
 18:    531.97   0.132809  671.16  0.077908  ( 0.024049 -0.036440 -0.275684)
 19:    611.80   0.000014    0.07  0.000007  ( 0.002178 -0.001485 -0.000043)
 20:    633.78   2.025793  10237.53  0.997471  ( 0.077556 -0.149245 -0.984470)
 21:    672.04   0.007414   37.47  0.003443  (-0.044292 -0.028759  0.025573)
 22:    800.07   0.006840   34.57  0.002668  (-0.039605 -0.026423  0.020033)
 23:    819.63   0.000001    0.00  0.000000  (-0.000437 -0.000193  0.000153)
 24:    836.28   0.004930   24.92  0.001840  (-0.003372  0.000174  0.042760)
 25:    928.09   0.001001    5.06  0.000337  (-0.014093 -0.009341  0.007122)
 26:    995.74   0.020879  105.51  0.006543  (-0.009626  0.017658  0.078351)
 27:   1005.00   0.000000    0.00  0.000000  ( 0.000101 -0.000046 -0.000181)
 28:   1022.71   0.000009    0.04  0.000003  (-0.001003  0.000557 -0.001133)
 29:   1027.61   0.000006    0.03  0.000002  ( 0.001080  0.000692 -0.000538)
 30:   1030.50   0.003360   16.98  0.001018  ( 0.002217 -0.000182 -0.031823)
 31:   1122.45   0.001730    8.74  0.000481  ( 0.014046 -0.008093  0.014775)
 32:   1173.34   0.000009    0.05  0.000002  (-0.001247  0.000794 -0.000463)
 33:   1192.25   0.069314  350.29  0.018143  (-0.015075  0.026618  0.131175)
 34:   1350.54   0.000006    0.03  0.000001  ( 0.000991 -0.000645  0.000255)
 35:   1368.45   2.283570  11540.23  0.520748  ( 0.071958 -0.108255 -0.709824)
 36:   1385.79   0.602028  3042.40  0.135569  ( 0.035437 -0.050419 -0.363003)
 37:   1397.37   0.000038    0.19  0.000009  (-0.001066  0.000901  0.002578)
 38:   1500.68   0.001510    7.63  0.000314  ( 0.010795 -0.006216  0.012605)
 39:   1523.84   0.034501  174.36  0.007065  (-0.015132  0.044981  0.069377)
 40:   1566.28   0.000293    1.48  0.000058  (-0.004748  0.002738 -0.005314)
 41:   1630.84   0.029463  148.90  0.005638  (-0.016146  0.054900  0.048613)
 42:   1666.54   0.227941  1151.92  0.042683  ( 0.027128 -0.058775 -0.196194)
 43:   2034.55   0.066433  335.73  0.010190  ( 0.057798  0.039391  0.072783)
 44:   3189.24   0.001539    7.78  0.000151  (-0.002161  0.006145  0.010401)
 45:   3190.39   0.000024    0.12  0.000002  ( 0.000056 -0.000558 -0.001430)
 46:   3202.51   0.003328   16.82  0.000324  (-0.002333  0.004203  0.017356)
 47:   3208.54   0.000013    0.07  0.000001  (-0.000788  0.000303 -0.000774)
 48:   3217.64   0.001236    6.25  0.000120  (-0.001178  0.001284  0.010811)
 49:   3567.80   0.311138  1572.36  0.027214  (-0.024321  0.061042  0.151316)
 50:   3689.71   0.014231   71.92  0.001204  ( 0.021559 -0.012301  0.024239)

--------------------------
THERMOCHEMISTRY AT 298.15K
--------------------------

Temperature         ... 298.15 K
Pressure            ... 1.00 atm
Total Mass          ... 139.13 AMU

Throughout the following assumptions are being made:
  (1) The electronic state is orbitally nondegenerate
  (2) There are no thermally accessible electronically excited states
  (3) Hindered rotations indicated by low frequency modes are not
      treated as such but are treated as vibrations and this may
      cause some error
  (4) All equations used are the standard statistical mechanics
      equations for an ideal gas
  (5) All vibrations are strictly harmonic

freq.       2.27  E(vib)   ...       0.59
freq.       4.64  E(vib)   ...       0.59
freq.       5.44  E(vib)   ...       0.58
freq.      19.57  E(vib)   ...       0.56
freq.     202.26  E(vib)   ...       0.35
freq.     387.92  E(vib)   ...       0.20
freq.     394.96  E(vib)   ...       0.20
freq.     453.14  E(vib)   ...       0.16
freq.     505.23  E(vib)   ...       0.14
freq.     513.61  E(vib)   ...       0.13
freq.     531.97  E(vib)   ...       0.13
freq.     611.80  E(vib)   ...       0.10
freq.     633.78  E(vib)   ...       0.09
freq.     672.04  E(vib)   ...       0.08
freq.     800.07  E(vib)   ...       0.05
freq.     819.63  E(vib)   ...       0.05
freq.     836.28  E(vib)   ...       0.04
freq.     928.09  E(vib)   ...       0.03
freq.     995.74  E(vib)   ...       0.02
freq.    1005.00  E(vib)   ...       0.02
freq.    1022.71  E(vib)   ...       0.02
freq.    1027.61  E(vib)   ...       0.02
freq.    1030.50  E(vib)   ...       0.02
freq.    1122.45  E(vib)   ...       0.01
freq.    1173.34  E(vib)   ...       0.01
freq.    1192.25  E(vib)   ...       0.01
freq.    1350.54  E(vib)   ...       0.01
freq.    1368.45  E(vib)   ...       0.01
freq.    1385.79  E(vib)   ...       0.00
freq.    1397.37  E(vib)   ...       0.00
freq.    1500.68  E(vib)   ...       0.00
freq.    1523.84  E(vib)   ...       0.00
freq.    1566.28  E(vib)   ...       0.00
freq.    1630.84  E(vib)   ...       0.00
freq.    1666.54  E(vib)   ...       0.00
freq.    2034.55  E(vib)   ...       0.00
freq.    3189.24  E(vib)   ...       0.00
freq.    3190.39  E(vib)   ...       0.00
freq.    3202.51  E(vib)   ...       0.00
freq.    3208.54  E(vib)   ...       0.00
freq.    3217.64  E(vib)   ...       0.00
freq.    3567.80  E(vib)   ...       0.00
freq.    3689.71  E(vib)   ...       0.00

------------
INNER ENERGY
------------

The inner energy is: U= E(el) + E(ZPE) + E(vib) + E(rot) + E(trans)
    E(el)   - is the total energy from the electronic structure calculation
              = E(kin-el) + E(nuc-el) + E(el-el) + E(nuc-nuc)
    E(ZPE)  - the the zero temperature vibrational energy from the frequency calculation
    E(vib)  - the the finite temperature correction to E(ZPE) due to population
              of excited vibrational states
    E(rot)  - is the rotational thermal energy
    E(trans)- is the translational thermal energy

Summary of contributions to the inner energy U:
Electronic energy                ...   -491.77496012 Eh
Zero point energy                ...      0.12662744 Eh      79.46 kcal/mol
Thermal vibrational correction   ...      0.00676755 Eh       4.25 kcal/mol
Thermal rotational correction    ...      0.00141627 Eh       0.89 kcal/mol
Thermal translational correction ...      0.00141627 Eh       0.89 kcal/mol
-----------------------------------------------------------------------
Total thermal energy                   -491.63873259 Eh

Summary of corrections to the electronic energy:
(perhaps to be used in another calculation)
Total thermal correction                  0.00960009 Eh       6.02 kcal/mol
Non-thermal (ZPE) correction              0.12662744 Eh      79.46 kcal/mol
-----------------------------------------------------------------------
Total correction                          0.13622753 Eh      85.48 kcal/mol

--------
ENTHALPY
--------

The enthalpy is H = U + kB*T
                kB is Boltzmann's constant
Total free energy                 ...   -491.63873259 Eh
Thermal Enthalpy correction       ...      0.00094421 Eh       0.59 kcal/mol
-----------------------------------------------------------------------
Total Enthalpy                    ...   -491.63778838 Eh

Note: Only C1 symmetry has been detected, increase convergence thresholds
      if your molecule has a higher symmetry. Symmetry factor of 1.0 is
      used for the rotational entropy correction.

Note: Rotational entropy computed according to Herzberg
Infrared and Raman Spectra, Chapter V,1, Van Nostrand Reinhold, 1945
Point Group:  C1, Symmetry Number:   1
Rotational constants in cm-1:     0.094567     0.001684     0.001667

Vibrational entropy computed according to the QRRHO of S. Grimme
Chem.Eur.J. 2012 18 9955

-------
ENTROPY
-------

The entropy contributions are T*S = T*(S(el)+S(vib)+S(rot)+S(trans))
     S(el)   - electronic entropy
     S(vib)  - vibrational entropy
     S(rot)  - rotational entropy
     S(trans)- translational entropy
The entropies will be listed as multiplied by the temperature to get
units of energy

Electronic entropy                ...      0.00000000 Eh      0.00 kcal/mol
Vibrational entropy               ...      0.01524312 Eh      9.57 kcal/mol
Rotational entropy                ...      0.01665901 Eh     10.45 kcal/mol
Translational entropy             ...      0.01933899 Eh     12.14 kcal/mol
-----------------------------------------------------------------------
Final entropy term                ...      0.05124112 Eh     32.15 kcal/mol

In case the symmetry of your molecule has not been determined correctly
or in case you have a reason to use a different symmetry number we print
out the resulting rotational entropy values for sn=1,12 :
 --------------------------------------------------------
|  sn= 1 | S(rot)=       0.01665901 Eh     10.45 kcal/mol|
|  sn= 2 | S(rot)=       0.01600455 Eh     10.04 kcal/mol|
|  sn= 3 | S(rot)=       0.01562172 Eh      9.80 kcal/mol|
|  sn= 4 | S(rot)=       0.01535010 Eh      9.63 kcal/mol|
|  sn= 5 | S(rot)=       0.01513941 Eh      9.50 kcal/mol|
|  sn= 6 | S(rot)=       0.01496727 Eh      9.39 kcal/mol|
|  sn= 7 | S(rot)=       0.01482172 Eh      9.30 kcal/mol|
|  sn= 8 | S(rot)=       0.01469564 Eh      9.22 kcal/mol|
|  sn= 9 | S(rot)=       0.01458443 Eh      9.15 kcal/mol|
|  sn=10 | S(rot)=       0.01448495 Eh      9.09 kcal/mol|
|  sn=11 | S(rot)=       0.01439496 Eh      9.03 kcal/mol|
|  sn=12 | S(rot)=       0.01431281 Eh      8.98 kcal/mol|
 --------------------------------------------------------

-------------------
GIBBS FREE ENERGY
-------------------

The Gibbs free energy is G = H - T*S

                             ****ORCA TERMINATED NORMALLY****
TOTAL RUN TIME: 0 days 0 hours 56 minutes 32 seconds 123 msec
