                         Program Version 5.0.4 -  RELEASE  -
|  1> !BP86 cc-pVDZ OPT FREQ cc-pVDZ/C D4 RIJCOSX
|  2>
|  3> * xyz 0 1
|  4>    C       -2.64719        1.25812       -0.01564
|  5>    C       -3.75505        0.38815       -0.00495
|  6>    C       -3.58758       -0.99357        0.00048
|  7>    C       -2.30545       -1.55120        0.00103
|  8>    C       -1.19668       -0.70069        0.00060
|  9>    C       -1.36339        0.68456       -0.00515
| 10>    H       -4.76434        0.80346       -0.00129
| 11>    H       -4.45279       -1.65564        0.00138
| 12>    H       -0.18747       -1.11940        0.00155
| 13>    H       -0.48331        1.32983       -0.00151
| 14>    N       -2.81901        2.63126        0.07515
| 15>    H       -3.74150        3.03708       -0.38213
| 16>    H       -2.02625        3.25353       -0.38255
| 17>    O       -2.20017       -2.92903        0.00003
| 18>    H       -1.25647       -3.15886        0.00156
| 19> **                         ****END OF INPUT****
 Total Charge           Charge          ....    0
 Multiplicity           Mult            ....    1
 Number of Electrons    NEL             ....   58
Dispersion correction           -0.019008960
FINAL SINGLE POINT ENERGY      -362.861420988274
Dispersion correction            ... Starting D4
Dispersion correction           -0.018976900
FINAL SINGLE POINT ENERGY      -362.871004916796
Dispersion correction            ... Starting D4
Dispersion correction           -0.018963871
FINAL SINGLE POINT ENERGY      -362.871506037432
Dispersion correction            ... Starting D4
Dispersion correction           -0.018964397
FINAL SINGLE POINT ENERGY      -362.871674270472
Dispersion correction            ... Starting D4
Dispersion correction           -0.018966679
FINAL SINGLE POINT ENERGY      -362.871676073686
Dispersion correction            ... Starting D4
                    ***********************HURRAY********************

CARTESIAN COORDINATES (ANGSTROEM)
---------------------------------
  C     -2.649189    1.271596   -0.013655
  C     -3.762496    0.398795   -0.009750
  C     -3.596090   -0.990849   -0.003109
  C     -2.306047   -1.553489    0.001042
  C     -1.190367   -0.696825   -0.003706
  C     -1.359945    0.695890   -0.010911
  H     -4.780360    0.819647   -0.008502
  H     -4.467265   -1.661284   -0.002987
  H     -0.171602   -1.118671   -0.004519
  H     -0.472428    1.347930   -0.010630
  N     -2.823183    2.669316    0.058990
  H     -3.704011    2.983784   -0.360810
  H     -2.046660    3.191124   -0.360129
  O     -2.204575   -2.928373    0.005671
  H     -1.252431   -3.150990    0.011565

 Multiplicity           Mult            ....    1
 Number of Electrons    NEL             ....   58
 Basis Dimension        Dim             ....  147

ORBITAL ENERGIES
----------------

  NO   OCC          E(Eh)            E(eV)
   0   2.0000     -18.806979      -511.7639
   1   2.0000     -14.019630      -381.4935
   2   2.0000      -9.958860      -270.9944
   3   2.0000      -9.943444      -270.5749
   4   2.0000      -9.912403      -269.7302
   5   2.0000      -9.910293      -269.6728
   6   2.0000      -9.909208      -269.6433
   7   2.0000      -9.907113      -269.5862
   8   2.0000      -0.960527       -26.1373
   9   2.0000      -0.831286       -22.6204
  10   2.0000      -0.752020       -20.4635
  11   2.0000      -0.670974       -18.2581
  12   2.0000      -0.645821       -17.5737
  13   2.0000      -0.559631       -15.2283
  14   2.0000      -0.535657       -14.5760
  15   2.0000      -0.483821       -13.1654
  16   2.0000      -0.458200       -12.4682
  17   2.0000      -0.444945       -12.1076
  18   2.0000      -0.396360       -10.7855
  19   2.0000      -0.381901       -10.3921
  20   2.0000      -0.367665       -10.0047
  21   2.0000      -0.353914        -9.6305
  22   2.0000      -0.346549        -9.4301
  23   2.0000      -0.322438        -8.7740
  24   2.0000      -0.309705        -8.4275
  25   2.0000      -0.289526        -7.8784
  26   2.0000      -0.240473        -6.5436
  27   2.0000      -0.220545        -6.0013
  28   2.0000      -0.159723        -4.3463
  29   0.0000      -0.033535        -0.9125
  30   0.0000      -0.003691        -0.1004
  31   0.0000       0.030400         0.8272
  32   0.0000       0.038652         1.0518
  33   0.0000       0.057050         1.5524

MULLIKEN ATOMIC CHARGES
-----------------------
   0 C :   -0.034955
   1 C :    0.029945
   2 C :    0.027322
   3 C :    0.028802
   4 C :   -0.014166
   5 C :    0.026591
   6 H :   -0.026078
   7 H :   -0.011996
   8 H :   -0.021836
   9 H :   -0.027495
  10 N :   -0.133240
  11 H :    0.093411
  12 H :    0.092823
  13 O :   -0.176965
  14 H :    0.147838
Sum of atomic charges:   -0.0000000

LOEWDIN ATOMIC CHARGES
----------------------
   0 C :   -0.068438
   1 C :   -0.054372
   2 C :   -0.046058
   3 C :   -0.076243
   4 C :   -0.076035
   5 C :   -0.057698
   6 H :    0.026309
   7 H :    0.032627
   8 H :    0.025271
   9 H :    0.025367
  10 N :    0.034225
  11 H :    0.056042
  12 H :    0.055694
  13 O :    0.061019
  14 H :    0.062290

  Mayer bond orders larger than 0.100000
B(  0-C ,  1-C ) :   1.3613 B(  0-C ,  5-C ) :   1.3784 B(  0-C , 10-N ) :   1.1926
B(  1-C ,  2-C ) :   1.5012 B(  1-C ,  6-H ) :   0.9224 B(  2-C ,  3-C ) :   1.3839
B(  2-C ,  7-H ) :   0.9180 B(  3-C ,  4-C ) :   1.3528 B(  3-C , 13-O ) :   1.2013
B(  4-C ,  5-C ) :   1.4728 B(  4-C ,  8-H ) :   0.9153 B(  5-C ,  9-H ) :   0.9186
B( 10-N , 11-H ) :   0.9642 B( 10-N , 12-H ) :   0.9643 B( 13-O , 14-H ) :   0.9955

Dispersion correction           -0.018967333
FINAL SINGLE POINT ENERGY      -362.871676289521

DIPOLE MOMENT
-------------
                                X             Y             Z
Electronic contribution:      0.00757      -2.80762       0.24732
Nuclear contribution   :      0.42302       3.29260      -0.67160
                        -----------------------------------------
Total Dipole Moment    :      0.43059       0.48498      -0.42429
                        -----------------------------------------
Magnitude (a.u.)       :      0.77500
Magnitude (Debye)      :      1.96991

Dispersion correction in the Hessian             ... Starting D4

VIBRATIONAL FREQUENCIES
-----------------------

Scaling factor for frequencies =  1.000000000  (already applied!)

   0:         0.00 cm**-1
   1:         0.00 cm**-1
   2:         0.00 cm**-1
   3:         0.00 cm**-1
   4:         0.00 cm**-1
   5:         0.00 cm**-1
   6:       145.31 cm**-1
   7:       237.28 cm**-1
   8:       317.47 cm**-1
   9:       329.16 cm**-1
  10:       349.77 cm**-1
  11:       405.81 cm**-1
  12:       418.44 cm**-1
  13:       455.72 cm**-1
  14:       497.27 cm**-1
  15:       635.18 cm**-1
  16:       643.85 cm**-1
  17:       694.71 cm**-1
  18:       755.29 cm**-1
  19:       764.83 cm**-1
  20:       799.02 cm**-1
  21:       841.65 cm**-1
  22:       869.79 cm**-1
  23:       902.68 cm**-1
  24:       985.60 cm**-1
  25:      1054.41 cm**-1
  26:      1109.49 cm**-1
  27:      1142.01 cm**-1
  28:      1162.17 cm**-1
  29:      1248.04 cm**-1
  30:      1286.19 cm**-1
  31:      1299.91 cm**-1
  32:      1381.79 cm**-1
  33:      1446.27 cm**-1
  34:      1506.78 cm**-1
  35:      1586.90 cm**-1
  36:      1599.09 cm**-1
  37:      1638.55 cm**-1
  38:      3076.57 cm**-1
  39:      3091.80 cm**-1
  40:      3099.06 cm**-1
  41:      3126.04 cm**-1
  42:      3422.66 cm**-1
  43:      3520.91 cm**-1
  44:      3655.29 cm**-1

IR SPECTRUM
-----------

 Mode   freq       eps      Int      T**2         TX        TY        TZ
       cm**-1   L/(mol*cm) km/mol    a.u.
----------------------------------------------------------------------------
  6:    145.31   0.000580    2.93  0.001245  (-0.001625  0.018839  0.029787)
  7:    237.28   0.003752   18.96  0.004935  ( 0.069809  0.007715  0.001445)
  8:    317.47   0.000796    4.02  0.000782  ( 0.008881  0.026495  0.001190)
  9:    329.16   0.018492   93.45  0.017531  ( 0.001153  0.001721 -0.132389)
 10:    349.77   0.001521    7.68  0.001357  ( 0.002873 -0.022712 -0.028856)
 11:    405.81   0.000356    1.80  0.000273  ( 0.008400 -0.000554 -0.014231)
 12:    418.44   0.001264    6.39  0.000943  (-0.006702  0.029965 -0.000230)
 13:    455.72   0.000067    0.34  0.000046  (-0.002717 -0.004496  0.004315)
 14:    497.27   0.006566   33.18  0.004120  (-0.003186  0.026635  0.058315)
 15:    635.18   0.000288    1.45  0.000141  ( 0.002030 -0.011555 -0.001921)
 16:    643.85   0.056015  283.08  0.027149  ( 0.019194 -0.149969 -0.065502)
 17:    694.71   0.007363   37.21  0.003307  ( 0.006870 -0.054077 -0.018329)
 18:    755.29   0.000347    1.75  0.000143  ( 0.001017  0.011933 -0.000008)
 19:    764.83   0.001997   10.09  0.000815  ( 0.000805  0.006042  0.027888)
 20:    799.02   0.010784   54.50  0.004212  ( 0.003340 -0.017445 -0.062421)
 21:    841.65   0.000889    4.49  0.000330  (-0.003939  0.016587  0.006255)
 22:    869.79   0.000125    0.63  0.000045  (-0.000726  0.006492  0.001486)
 23:    902.68   0.000034    0.17  0.000012  ( 0.000449 -0.001763  0.002920)
 24:    985.60   0.000051    0.26  0.000016  (-0.000325  0.003396  0.002149)
 25:   1054.41   0.002165   10.94  0.000641  ( 0.022091 -0.012362  0.000139)
 26:   1109.49   0.001723    8.71  0.000485  ( 0.021857 -0.002612  0.000081)
 27:   1142.01   0.000210    1.06  0.000057  (-0.004039  0.006397  0.000453)
 28:   1162.17   0.027141  137.16  0.007288  ( 0.001235 -0.085355  0.000884)
 29:   1248.04   0.019883  100.48  0.004972  (-0.012810  0.069324 -0.001322)
 30:   1286.19   0.001022    5.16  0.000248  ( 0.001023  0.015709  0.000211)
 31:   1299.91   0.003364   17.00  0.000808  ( 0.000611  0.028408 -0.000372)
 32:   1381.79   0.006333   32.00  0.001430  ( 0.032044 -0.020083  0.000264)
 33:   1446.27   0.004460   22.54  0.000962  ( 0.002178 -0.030946  0.000186)
 34:   1506.78   0.038717  195.66  0.008019  ( 0.009973 -0.088988 -0.000474)
 35:   1586.90   0.010631   53.73  0.002091  ( 0.005052 -0.041454  0.018619)
 36:   1599.09   0.000364    1.84  0.000071  (-0.001796 -0.008119 -0.001400)
 37:   1638.55   0.000501    2.53  0.000095  ( 0.000223 -0.009327  0.002891)
 38:   3076.57   0.004901   24.77  0.000497  ( 0.008847 -0.020464  0.000163)
 39:   3091.80   0.003416   17.26  0.000345  (-0.014345  0.011788 -0.000064)
 40:   3099.06   0.003323   16.79  0.000335  (-0.016302 -0.008298 -0.000006)
 41:   3126.04   0.001458    7.37  0.000146  (-0.010110 -0.006583  0.000074)
 42:   3422.66   0.000702    3.55  0.000064  (-0.000836  0.004973 -0.006214)
 43:   3520.91   0.001130    5.71  0.000100  (-0.009937 -0.001190 -0.000045)
 44:   3655.29   0.008077   40.82  0.000690  (-0.019196  0.017917 -0.000248)

--------------------------
THERMOCHEMISTRY AT 298.15K
--------------------------

Temperature         ... 298.15 K
Pressure            ... 1.00 atm
Total Mass          ... 109.13 AMU

Throughout the following assumptions are being made:
  (1) The electronic state is orbitally nondegenerate
  (2) There are no thermally accessible electronically excited states
  (3) Hindered rotations indicated by low frequency modes are not
      treated as such but are treated as vibrations and this may
      cause some error
  (4) All equations used are the standard statistical mechanics
      equations for an ideal gas
  (5) All vibrations are strictly harmonic

freq.     145.31  E(vib)   ...       0.41
freq.     237.28  E(vib)   ...       0.32
freq.     317.47  E(vib)   ...       0.25
freq.     329.16  E(vib)   ...       0.24
freq.     349.77  E(vib)   ...       0.23
freq.     405.81  E(vib)   ...       0.19
freq.     418.44  E(vib)   ...       0.18
freq.     455.72  E(vib)   ...       0.16
freq.     497.27  E(vib)   ...       0.14
freq.     635.18  E(vib)   ...       0.09
freq.     643.85  E(vib)   ...       0.09
freq.     694.71  E(vib)   ...       0.07
freq.     755.29  E(vib)   ...       0.06
freq.     764.83  E(vib)   ...       0.06
freq.     799.02  E(vib)   ...       0.05
freq.     841.65  E(vib)   ...       0.04
freq.     869.79  E(vib)   ...       0.04
freq.     902.68  E(vib)   ...       0.03
freq.     985.60  E(vib)   ...       0.02
freq.    1054.41  E(vib)   ...       0.02
freq.    1109.49  E(vib)   ...       0.02
freq.    1142.01  E(vib)   ...       0.01
freq.    1162.17  E(vib)   ...       0.01
freq.    1248.04  E(vib)   ...       0.01
freq.    1286.19  E(vib)   ...       0.01
freq.    1299.91  E(vib)   ...       0.01
freq.    1381.79  E(vib)   ...       0.01
freq.    1446.27  E(vib)   ...       0.00
freq.    1506.78  E(vib)   ...       0.00
freq.    1586.90  E(vib)   ...       0.00
freq.    1599.09  E(vib)   ...       0.00
freq.    1638.55  E(vib)   ...       0.00
freq.    3076.57  E(vib)   ...       0.00
freq.    3091.80  E(vib)   ...       0.00
freq.    3099.06  E(vib)   ...       0.00
freq.    3126.04  E(vib)   ...       0.00
freq.    3422.66  E(vib)   ...       0.00
freq.    3520.91  E(vib)   ...       0.00
freq.    3655.29  E(vib)   ...       0.00

------------
INNER ENERGY
------------

The inner energy is: U= E(el) + E(ZPE) + E(vib) + E(rot) + E(trans)
    E(el)   - is the total energy from the electronic structure calculation
              = E(kin-el) + E(nuc-el) + E(el-el) + E(nuc-nuc)
    E(ZPE)  - the the zero temperature vibrational energy from the frequency calculation
    E(vib)  - the the finite temperature correction to E(ZPE) due to population
              of excited vibrational states
    E(rot)  - is the rotational thermal energy
    E(trans)- is the translational thermal energy

Summary of contributions to the inner energy U:
Electronic energy                ...   -362.87167629 Eh
Zero point energy                ...      0.11733196 Eh      73.63 kcal/mol
Thermal vibrational correction   ...      0.00441608 Eh       2.77 kcal/mol
Thermal rotational correction    ...      0.00141627 Eh       0.89 kcal/mol
Thermal translational correction ...      0.00141627 Eh       0.89 kcal/mol
-----------------------------------------------------------------------
Total thermal energy                   -362.74709571 Eh

Summary of corrections to the electronic energy:
(perhaps to be used in another calculation)
Total thermal correction                  0.00724862 Eh       4.55 kcal/mol
Non-thermal (ZPE) correction              0.11733196 Eh      73.63 kcal/mol
-----------------------------------------------------------------------
Total correction                          0.12458058 Eh      78.18 kcal/mol

--------
ENTHALPY
--------

The enthalpy is H = U + kB*T
                kB is Boltzmann's constant
Total free energy                 ...   -362.74709571 Eh
Thermal Enthalpy correction       ...      0.00094421 Eh       0.59 kcal/mol
-----------------------------------------------------------------------
Total Enthalpy                    ...   -362.74615150 Eh

Note: Only C1 symmetry has been detected, increase convergence thresholds
      if your molecule has a higher symmetry. Symmetry factor of 1.0 is
      used for the rotational entropy correction.

Note: Rotational entropy computed according to Herzberg
Infrared and Raman Spectra, Chapter V,1, Van Nostrand Reinhold, 1945
Point Group:  C1, Symmetry Number:   1
Rotational constants in cm-1:     0.183364     0.048479     0.038397

Vibrational entropy computed according to the QRRHO of S. Grimme
Chem.Eur.J. 2012 18 9955

-------
ENTROPY
-------

The entropy contributions are T*S = T*(S(el)+S(vib)+S(rot)+S(trans))
     S(el)   - electronic entropy
     S(vib)  - vibrational entropy
     S(rot)  - rotational entropy
     S(trans)- translational entropy
The entropies will be listed as multiplied by the temperature to get
units of energy

Electronic entropy                ...      0.00000000 Eh      0.00 kcal/mol
Vibrational entropy               ...      0.00680120 Eh      4.27 kcal/mol
Rotational entropy                ...      0.01327937 Eh      8.33 kcal/mol
Translational entropy             ...      0.01899496 Eh     11.92 kcal/mol
-----------------------------------------------------------------------
Final entropy term                ...      0.03907552 Eh     24.52 kcal/mol

In case the symmetry of your molecule has not been determined correctly
or in case you have a reason to use a different symmetry number we print
out the resulting rotational entropy values for sn=1,12 :
 --------------------------------------------------------
|  sn= 1 | S(rot)=       0.01327937 Eh      8.33 kcal/mol|
|  sn= 2 | S(rot)=       0.01262491 Eh      7.92 kcal/mol|
|  sn= 3 | S(rot)=       0.01224208 Eh      7.68 kcal/mol|
|  sn= 4 | S(rot)=       0.01197045 Eh      7.51 kcal/mol|
|  sn= 5 | S(rot)=       0.01175976 Eh      7.38 kcal/mol|
|  sn= 6 | S(rot)=       0.01158762 Eh      7.27 kcal/mol|
|  sn= 7 | S(rot)=       0.01144207 Eh      7.18 kcal/mol|
|  sn= 8 | S(rot)=       0.01131600 Eh      7.10 kcal/mol|
|  sn= 9 | S(rot)=       0.01120479 Eh      7.03 kcal/mol|
|  sn=10 | S(rot)=       0.01110531 Eh      6.97 kcal/mol|
|  sn=11 | S(rot)=       0.01101532 Eh      6.91 kcal/mol|
|  sn=12 | S(rot)=       0.01093316 Eh      6.86 kcal/mol|
 --------------------------------------------------------

-------------------
GIBBS FREE ENERGY
-------------------

The Gibbs free energy is G = H - T*S

Total enthalpy                    ...   -362.74615150 Eh
Total entropy correction          ...     -0.03907552 Eh    -24.52 kcal/mol
-----------------------------------------------------------------------

                             ****ORCA TERMINATED NORMALLY****
TOTAL RUN TIME: 0 days 0 hours 14 minutes 36 seconds 757 msec
