                         Program Version 5.0.4 -  RELEASE  -
|  1> !B3LYP DEF2-SVP D4 OPT FREQ SOSCF
|  2>
|  3> %Base "first_job"
|  4>
|  5> * xyz 0 1
|  6>    C       -3.23673       -1.74319        0.00957
|  7>    C       -4.38981       -1.06987       -0.00700
|  8>    C       -5.68685       -1.77657        0.00496
|  9>    C       -6.84159       -1.09851       -0.01177
| 10>    C       -8.15627       -1.81531        0.00035
| 11>    H       -8.23904       -2.47050       -0.89248
| 12>    H       -8.98600       -1.07807       -0.01692
| 13>    H       -8.24304       -2.43254        0.91947
| 14>    F       -2.05676       -1.07019       -0.00195
| 15>    H       -3.22369       -2.82896        0.03229
| 16>    H       -4.36653        0.01644       -0.02966
| 17>    H       -5.70296       -2.86388        0.02768
| 18>    H       -6.83917       -0.01180       -0.03452
| 19> *
| 20>
| 21> $new_job
| 22>
| 23> !B3LYP DEF2-QZVP
| 24>
| 25> %base "second_job"
| 26>
| 27> %scf
| 28> convergence tight
| 29> end
| 30>
| 31> * XYZfile 0 1 first_job.xyz
| 32>
| 33>                          ****END OF INPUT****
 Total Charge           Charge          ....    0
 Multiplicity           Mult            ....    1
 Number of Electrons    NEL             ....   46
Dispersion correction           -0.013403869
FINAL SINGLE POINT ENERGY      -294.166436530704
Dispersion correction            ... Starting D4
Dispersion correction           -0.013324098
FINAL SINGLE POINT ENERGY      -294.169848633515
Dispersion correction            ... Starting D4
Dispersion correction           -0.013279533
FINAL SINGLE POINT ENERGY      -294.170763250532
Dispersion correction            ... Starting D4
FINAL SINGLE POINT ENERGY      -294.170830220802
FINAL SINGLE POINT ENERGY      -294.170851945464
FINAL SINGLE POINT ENERGY      -294.170855844983
Dispersion correction            ... Starting D4
Dispersion correction           -0.013271635
FINAL SINGLE POINT ENERGY      -294.170858534545
Dispersion correction            ... Starting D4
                    ***********************HURRAY********************
Dispersion correction           -0.013271479
FINAL SINGLE POINT ENERGY      -294.170858937883
Dispersion correction in the Hessian             ... Starting D4

VIBRATIONAL FREQUENCIES
-----------------------

Scaling factor for frequencies =  1.000000000  (already applied!)

   0:         0.00 cm**-1
   1:         0.00 cm**-1
   2:         0.00 cm**-1
   3:         0.00 cm**-1
   4:         0.00 cm**-1
   5:         0.00 cm**-1
   6:      -199.64 cm**-1 ***imaginary mode***
   7:       118.28 cm**-1
   8:       143.11 cm**-1
   9:       236.54 cm**-1
  10:       350.92 cm**-1
  11:       366.57 cm**-1
  12:       422.41 cm**-1
  13:       582.00 cm**-1
  14:       797.49 cm**-1
  15:       866.11 cm**-1
  16:       932.27 cm**-1
  17:       968.99 cm**-1
  18:      1007.28 cm**-1
  19:      1035.07 cm**-1
  20:      1075.79 cm**-1
  21:      1172.29 cm**-1
  22:      1184.29 cm**-1
  23:      1236.58 cm**-1
  24:      1310.12 cm**-1
  25:      1322.16 cm**-1
  26:      1347.16 cm**-1
  27:      1391.54 cm**-1
  28:      1459.45 cm**-1
  29:      1460.93 cm**-1
  30:      1700.51 cm**-1
  31:      1744.83 cm**-1
  32:      3017.14 cm**-1
  33:      3076.98 cm**-1
  34:      3118.16 cm**-1
  35:      3119.34 cm**-1
  36:      3138.64 cm**-1
  37:      3165.41 cm**-1
  38:      3183.99 cm**-1

IR SPECTRUM
-----------

 Mode   freq       eps      Int      T**2         TX        TY        TZ
       cm**-1   L/(mol*cm) km/mol    a.u.
----------------------------------------------------------------------------
  7:    118.28   0.000032    0.16  0.000084  ( 0.000038  0.000228  0.009184)
  8:    143.11   0.000217    1.09  0.000472  ( 0.015005  0.015715 -0.000296)
  9:    236.54   0.000033    0.17  0.000044  ( 0.000047 -0.000121 -0.006602)
 10:    350.92   0.000436    2.21  0.000388  ( 0.010025 -0.016957  0.000344)
 11:    366.57   0.000556    2.81  0.000474  ( 0.000090 -0.000417 -0.021757)
 12:    422.41   0.000433    2.19  0.000320  ( 0.016977  0.005655 -0.000058)
 13:    582.00   0.003097   15.65  0.001660  ( 0.038586 -0.013092  0.000372)
 14:    797.49   0.000596    3.01  0.000233  ( 0.000024 -0.000313 -0.015275)
 15:    866.11   0.000003    0.01  0.000001  ( 0.000030 -0.000025 -0.000949)
 16:    932.27   0.002243   11.33  0.000751  ( 0.000059 -0.000540 -0.027395)
 17:    968.99   0.000388    1.96  0.000125  ( 0.008589 -0.007153  0.000156)
 18:   1007.28   0.012085   61.07  0.003744  ( 0.000117 -0.001226 -0.061175)
 19:   1035.07   0.000000    0.00  0.000000  (-0.000069  0.000005  0.000103)
 20:   1075.79   0.008928   45.12  0.002590  ( 0.049848  0.010244 -0.000097)
 21:   1172.29   0.019877  100.45  0.005291  ( 0.070441  0.018148 -0.000183)
 22:   1184.29   0.010381   52.46  0.002735  ( 0.051114  0.011077 -0.000101)
 23:   1236.58   0.002821   14.26  0.000712  (-0.023876 -0.011909  0.000188)
 24:   1310.12   0.002769   13.99  0.000660  (-0.024889  0.006329 -0.000192)
 25:   1322.16   0.000176    0.89  0.000042  (-0.004976 -0.004108  0.000076)
 26:   1347.16   0.000943    4.76  0.000218  (-0.013412 -0.006202  0.000097)
 27:   1391.54   0.001569    7.93  0.000352  ( 0.014483 -0.011919  0.000297)
 28:   1459.45   0.000698    3.53  0.000149  ( 0.005876 -0.010704  0.000506)
 29:   1460.93   0.001323    6.69  0.000283  (-0.000121  0.000518  0.016805)
 30:   1700.51   0.009878   49.92  0.001813  ( 0.042494  0.002652  0.000049)
 31:   1744.83   0.009904   50.05  0.001771  (-0.042070  0.001217 -0.000141)
 32:   3017.14   0.005292   26.74  0.000547  (-0.021797 -0.008498  0.000162)
 33:   3076.98   0.002757   13.93  0.000280  ( 0.000017  0.000352  0.016719)
 34:   3118.16   0.002345   11.85  0.000235  ( 0.013028 -0.008058  0.000187)
 35:   3119.34   0.001704    8.61  0.000170  ( 0.007896  0.010396 -0.000192)
 36:   3138.64   0.004543   22.96  0.000452  ( 0.001554  0.021191 -0.000427)
 37:   3165.41   0.001969    9.95  0.000194  (-0.010218 -0.009471  0.000165)
 38:   3183.99   0.002254   11.39  0.000221  ( 0.005713  0.013718 -0.000262)

--------------------------
THERMOCHEMISTRY AT 298.15K
--------------------------

Temperature         ... 298.15 K
Pressure            ... 1.00 atm
Total Mass          ... 86.11 AMU

Throughout the following assumptions are being made:
  (1) The electronic state is orbitally nondegenerate
  (2) There are no thermally accessible electronically excited states
  (3) Hindered rotations indicated by low frequency modes are not
      treated as such but are treated as vibrations and this may
      cause some error
  (4) All equations used are the standard statistical mechanics
      equations for an ideal gas
  (5) All vibrations are strictly harmonic

freq.     118.28  E(vib)   ...       0.44
freq.     143.11  E(vib)   ...       0.41
freq.     236.54  E(vib)   ...       0.32
freq.     350.92  E(vib)   ...       0.23
freq.     366.57  E(vib)   ...       0.22
freq.     422.41  E(vib)   ...       0.18
freq.     582.00  E(vib)   ...       0.11
freq.     797.49  E(vib)   ...       0.05
freq.     866.11  E(vib)   ...       0.04
freq.     932.27  E(vib)   ...       0.03
freq.     968.99  E(vib)   ...       0.03
freq.    1007.28  E(vib)   ...       0.02
freq.    1035.07  E(vib)   ...       0.02
freq.    1075.79  E(vib)   ...       0.02
freq.    1172.29  E(vib)   ...       0.01
freq.    1184.29  E(vib)   ...       0.01
freq.    1236.58  E(vib)   ...       0.01
freq.    1310.12  E(vib)   ...       0.01
freq.    1322.16  E(vib)   ...       0.01
freq.    1347.16  E(vib)   ...       0.01
freq.    1391.54  E(vib)   ...       0.00
freq.    1459.45  E(vib)   ...       0.00
freq.    1460.93  E(vib)   ...       0.00
freq.    1700.51  E(vib)   ...       0.00
freq.    1744.83  E(vib)   ...       0.00
freq.    3017.14  E(vib)   ...       0.00
freq.    3076.98  E(vib)   ...       0.00
freq.    3118.16  E(vib)   ...       0.00
freq.    3119.34  E(vib)   ...       0.00
freq.    3138.64  E(vib)   ...       0.00
freq.    3165.41  E(vib)   ...       0.00
freq.    3183.99  E(vib)   ...       0.00

------------
INNER ENERGY
------------

The inner energy is: U= E(el) + E(ZPE) + E(vib) + E(rot) + E(trans)
    E(el)   - is the total energy from the electronic structure calculation
              = E(kin-el) + E(nuc-el) + E(el-el) + E(nuc-nuc)
    E(ZPE)  - the the zero temperature vibrational energy from the frequency calculation
    E(vib)  - the the finite temperature correction to E(ZPE) due to population
              of excited vibrational states
    E(rot)  - is the rotational thermal energy
    E(trans)- is the translational thermal energy

Summary of contributions to the inner energy U:
Electronic energy                ...   -294.17085894 Eh
Zero point energy                ...      0.10491499 Eh      65.84 kcal/mol
Thermal vibrational correction   ...      0.00345296 Eh       2.17 kcal/mol
Thermal rotational correction    ...      0.00141627 Eh       0.89 kcal/mol
Thermal translational correction ...      0.00141627 Eh       0.89 kcal/mol
-----------------------------------------------------------------------
Total thermal energy                   -294.05965844 Eh

Summary of corrections to the electronic energy:
(perhaps to be used in another calculation)
Total thermal correction                  0.00628551 Eh       3.94 kcal/mol
Non-thermal (ZPE) correction              0.10491499 Eh      65.84 kcal/mol
-----------------------------------------------------------------------
Total correction                          0.11120050 Eh      69.78 kcal/mol

--------
ENTHALPY
--------

The enthalpy is H = U + kB*T
                kB is Boltzmann's constant
Total free energy                 ...   -294.05965844 Eh
Thermal Enthalpy correction       ...      0.00094421 Eh       0.59 kcal/mol
-----------------------------------------------------------------------
Total Enthalpy                    ...   -294.05871423 Eh

Note: Only C1 symmetry has been detected, increase convergence thresholds
      if your molecule has a higher symmetry. Symmetry factor of 1.0 is
      used for the rotational entropy correction.

Note: Rotational entropy computed according to Herzberg
Infrared and Raman Spectra, Chapter V,1, Van Nostrand Reinhold, 1945
Point Group:  C1, Symmetry Number:   1
Rotational constants in cm-1:     0.890049     0.039290     0.037897

Vibrational entropy computed according to the QRRHO of S. Grimme
Chem.Eur.J. 2012 18 9955

-------
ENTROPY
-------

The entropy contributions are T*S = T*(S(el)+S(vib)+S(rot)+S(trans))
     S(el)   - electronic entropy
     S(vib)  - vibrational entropy
     S(rot)  - rotational entropy
     S(trans)- translational entropy
The entropies will be listed as multiplied by the temperature to get
units of energy

Electronic entropy                ...      0.00000000 Eh      0.00 kcal/mol
Vibrational entropy               ...      0.00581987 Eh      3.65 kcal/mol
Rotational entropy                ...      0.01263896 Eh      7.93 kcal/mol
Translational entropy             ...      0.01865943 Eh     11.71 kcal/mol
-----------------------------------------------------------------------
Final entropy term                ...      0.03711826 Eh     23.29 kcal/mol

In case the symmetry of your molecule has not been determined correctly
or in case you have a reason to use a different symmetry number we print
out the resulting rotational entropy values for sn=1,12 :
 --------------------------------------------------------
|  sn= 1 | S(rot)=       0.01263896 Eh      7.93 kcal/mol|
|  sn= 2 | S(rot)=       0.01198451 Eh      7.52 kcal/mol|
|  sn= 3 | S(rot)=       0.01160167 Eh      7.28 kcal/mol|
|  sn= 4 | S(rot)=       0.01133005 Eh      7.11 kcal/mol|
|  sn= 5 | S(rot)=       0.01111936 Eh      6.98 kcal/mol|
|  sn= 6 | S(rot)=       0.01094722 Eh      6.87 kcal/mol|
|  sn= 7 | S(rot)=       0.01080167 Eh      6.78 kcal/mol|
|  sn= 8 | S(rot)=       0.01067559 Eh      6.70 kcal/mol|
|  sn= 9 | S(rot)=       0.01056438 Eh      6.63 kcal/mol|
|  sn=10 | S(rot)=       0.01046490 Eh      6.57 kcal/mol|
|  sn=11 | S(rot)=       0.01037491 Eh      6.51 kcal/mol|
|  sn=12 | S(rot)=       0.01029276 Eh      6.46 kcal/mol|
 --------------------------------------------------------

-------------------
GIBBS FREE ENERGY
-------------------

The Gibbs free energy is G = H - T*S

Total enthalpy                    ...   -294.05871423 Eh
Total entropy correction          ...     -0.03711826 Eh    -23.29 kcal/mol
-----------------------------------------------------------------------
Final Gibbs free energy         ...   -294.09583249 Eh

For completeness - the Gibbs free energy minus the electronic energy
G-E(el)                           ...      0.07502645 Eh     47.08 kcal/mol

CARTESIAN COORDINATES (ANGSTROEM)
---------------------------------
  C     -3.210238   -1.735201    0.009531
  C     -4.378143   -1.080044   -0.007030
  C     -5.667357   -1.750565    0.003945
  C     -6.855007   -1.117155   -0.011645
  C     -8.195234   -1.804202    0.000164
  H     -8.321562   -2.468848   -0.872448
  H     -9.022351   -1.079414   -0.017044
  H     -8.325252   -2.430846    0.899953
  F     -2.033308   -1.098287   -0.000388
  H     -3.100937   -2.824642    0.032192
  H     -4.355746    0.015049   -0.029618
  H     -5.650496   -2.848786    0.026743
  H     -6.852810   -0.020009   -0.034336

 Multiplicity           Mult            ....    1
 Number of Electrons    NEL             ....   46
 Basis Dimension        Dim             ....  552

ORBITAL ENERGIES
----------------

  NO   OCC          E(Eh)            E(eV)
   0   2.0000     -24.693618      -671.9475
   1   2.0000     -10.256446      -279.0921
   2   2.0000     -10.185227      -277.1541
   3   2.0000     -10.183779      -277.1147
   4   2.0000     -10.182606      -277.0828
   5   2.0000     -10.175345      -276.8852
   6   2.0000      -1.229590       -33.4588
   7   2.0000      -0.817732       -22.2516
   8   2.0000      -0.764481       -20.8026
   9   2.0000      -0.687607       -18.7107
  10   2.0000      -0.604925       -16.4608
  11   2.0000      -0.565958       -15.4005
  12   2.0000      -0.520369       -14.1600
  13   2.0000      -0.499472       -13.5913
  14   2.0000      -0.468065       -12.7367
  15   2.0000      -0.446502       -12.1499
  16   2.0000      -0.416152       -11.3241
  17   2.0000      -0.414453       -11.2779
  18   2.0000      -0.380649       -10.3580
  19   2.0000      -0.372210       -10.1284
  20   2.0000      -0.354052        -9.6342
  21   2.0000      -0.320109        -8.7106
  22   2.0000      -0.224476        -6.1083
  23   0.0000      -0.031634        -0.8608
  24   0.0000       0.026730         0.7274
  25   0.0000       0.031045         0.8448
  26   0.0000       0.035320         0.9611
  27   0.0000       0.051295         1.3958

MULLIKEN ATOMIC CHARGES
-----------------------
   0 C :    0.124930
   1 C :   -0.020426
   2 C :   -0.038119
   3 C :   -0.058832
   4 C :   -0.110840
   5 H :    0.058351
   6 H :    0.046126
   7 H :    0.058637
   8 F :   -0.240187
   9 H :    0.073424
  10 H :    0.049844
  11 H :    0.022788
  12 H :    0.034305
Sum of atomic charges:    0.0000000

LOEWDIN ATOMIC CHARGES
----------------------
   0 C :   -0.262302
   1 C :    0.009404
   2 C :    0.022979
   3 C :    0.050913
   4 C :    0.200188
   5 H :   -0.049809
   6 H :   -0.055138
   7 H :   -0.049793
   8 F :    0.382728
   9 H :   -0.085057
  10 H :   -0.050624
  11 H :   -0.049114
  12 H :   -0.064372

  Mayer bond orders larger than 0.100000
B(  0-C ,  1-C ) :   1.7125 B(  0-C ,  3-C ) :   0.1025 B(  0-C ,  8-F ) :   0.9920
B(  0-C ,  9-H ) :   0.9820 B(  1-C ,  2-C ) :   1.0340 B(  1-C , 10-H ) :   0.9557
B(  2-C ,  3-C ) :   1.6510 B(  2-C , 11-H ) :   0.9696 B(  3-C ,  4-C ) :   0.9534
B(  3-C , 12-H ) :   0.9752 B(  4-C ,  5-H ) :   0.9601 B(  4-C ,  6-H ) :   0.9751
B(  4-C ,  7-H ) :   0.9600

Dispersion correction           -0.013271479
FINAL SINGLE POINT ENERGY      -294.532235506655

DIPOLE MOMENT
-------------
                                X             Y             Z
Electronic contribution:     12.46582       1.61313      -0.00519
Nuclear contribution   :    -13.10980      -1.89173       0.00955
                        -----------------------------------------
Total Dipole Moment    :     -0.64398      -0.27860       0.00436
                        -----------------------------------------
Magnitude (a.u.)       :      0.70168
Magnitude (Debye)      :      1.78352

Rotational constants in cm-1:     0.890049     0.039290     0.037897
Rotational constants in MHz : 26682.989530  1177.873154  1136.110222

                             ****ORCA TERMINATED NORMALLY****
TOTAL RUN TIME: 0 days 0 hours 37 minutes 17 seconds 16 msec
