                         Program Version 5.0.4 -  RELEASE  -
|  1> !B3LYP DEF2-QZVP
|  2>
|  3> %scf
|  4> smeartemp 5000
|  5> convergence tight
|  6> end
|  7>
|  8> * xyz 0 1
|  9>   C   -4.88569336155230      2.98207060676121      0.04333537261272
| 10>   C   -6.14959695789773      2.35864301241116      0.02758592588736
| 11>   C   -6.25559380286015      0.96845232728990     -0.00121869885868
| 12>   C   -5.11290643775582      0.16234415122468     -0.01440284580436
| 13>   C   -3.85586007858743      0.77497453451715      0.00208204091935
| 14>   C   -3.73800009771254      2.16417133781313      0.03090801634500
| 15>   H   -7.05256446988853      2.97652953111245      0.03476026878305
| 16>   H   -7.24815752893036      0.50936420781894     -0.01176333836965
| 17>   H   -5.20066374355790     -0.92621478272232     -0.03568755561573
| 18>   H   -2.94935247147236      0.16323446923219     -0.00589977089820
| 19>   H   -2.74782466200470      2.62955680400795      0.04054469739011
| 20>   N   -4.77400026474504      4.36582607320833      0.02173325533785
| 21>   H   -5.57985384924347      4.88619583261605      0.34871705822918
| 22>   H   -3.89604227379165      4.75045189470918      0.35073557404198
| 23> **                         ****END OF INPUT****

CARTESIAN COORDINATES (ANGSTROEM)
---------------------------------
  C     -4.885693    2.982071    0.043335
  C     -6.149597    2.358643    0.027586
  C     -6.255594    0.968452   -0.001219
  C     -5.112906    0.162344   -0.014403
  C     -3.855860    0.774975    0.002082
  C     -3.738000    2.164171    0.030908
  H     -7.052564    2.976530    0.034760
  H     -7.248158    0.509364   -0.011763
  H     -5.200664   -0.926215   -0.035688
  H     -2.949352    0.163234   -0.005900
  H     -2.747825    2.629557    0.040545
  N     -4.774000    4.365826    0.021733
  H     -5.579854    4.886196    0.348717
  H     -3.896042    4.750452    0.350736

 Total Charge           Charge          ....    0
 Multiplicity           Mult            ....    1
 Number of Electrons    NEL             ....   50
 Basis Dimension        Dim             ....  609

ORBITAL ENERGIES
----------------

  NO   OCC          E(Eh)            E(eV)
   0   2.0000     -14.325120      -389.8063
   1   2.0000     -10.216713      -278.0109
   2   2.0000     -10.173609      -276.8380
   3   2.0000     -10.173596      -276.8376
   4   2.0000     -10.169073      -276.7145
   5   2.0000     -10.169057      -276.7141
   6   2.0000     -10.163400      -276.5602
   7   2.0000      -0.920685       -25.0531
   8   2.0000      -0.832062       -22.6416
   9   2.0000      -0.739447       -20.1214
  10   2.0000      -0.721413       -19.6306
  11   2.0000      -0.608192       -16.5498
  12   2.0000      -0.595781       -16.2120
  13   2.0000      -0.522442       -14.2164
  14   2.0000      -0.509873       -13.8744
  15   2.0000      -0.475736       -12.9454
  16   2.0000      -0.428997       -11.6736
  17   2.0000      -0.425864       -11.5884
  18   2.0000      -0.414183       -11.2705
  19   2.0000      -0.383918       -10.4469
  20   2.0000      -0.355679        -9.6785
  21   2.0000      -0.338114        -9.2006
  22   2.0000      -0.313465        -8.5298
  23   1.9997      -0.250474        -6.8157
  24   1.9950      -0.207402        -5.6437
  25   0.0031      -0.009984        -0.2717
  26   0.0013       0.003199         0.0870
  27   0.0006       0.015811         0.4302
  28   0.0002       0.035342         0.9617
  29   0.0001       0.041261         1.1228
  30   0.0000       0.068729         1.8702
  31   0.0000       0.069482         1.8907
  32   0.0000       0.104205         2.8356
  33   0.0000       0.104620         2.8469
  34   0.0000       0.113566         3.0903

LOEWDIN ATOMIC CHARGES
----------------------
   0 C :   -0.246766
   1 C :    0.056676
   2 C :    0.048663
   3 C :    0.039472
   4 C :    0.048692
   5 C :    0.056665
   6 H :   -0.062483
   7 H :   -0.056708
   8 H :   -0.064094
   9 H :   -0.056702
  10 H :   -0.062512
  11 N :    0.643733
  12 H :   -0.172280
  13 H :   -0.172358

  Mayer bond orders larger than 0.100000
B(  0-C ,  1-C ) :   1.2324 B(  0-C ,  5-C ) :   1.2316 B(  0-C , 11-N ) :   1.0828
B(  1-C ,  2-C ) :   1.3552 B(  1-C ,  6-H ) :   0.9694 B(  2-C ,  3-C ) :   1.3293
B(  2-C ,  7-H ) :   0.9681 B(  3-C ,  4-C ) :   1.3302 B(  3-C ,  8-H ) :   0.9693
B(  4-C ,  5-C ) :   1.3552 B(  4-C ,  9-H ) :   0.9683 B(  5-C , 10-H ) :   0.9696
B( 11-N , 12-H ) :   0.9927 B( 11-N , 13-H ) :   0.9925

FINAL SINGLE POINT ENERGY      -287.556016451113

DIPOLE MOMENT
-------------
                                X             Y             Z
Electronic contribution:     -0.01331      -0.16712      -0.17980
Nuclear contribution   :      0.05809       0.72683       0.52928
                        -----------------------------------------
Total Dipole Moment    :      0.04479       0.55970       0.34948
                        -----------------------------------------
Magnitude (a.u.)       :      0.66137
Magnitude (Debye)      :      1.68107

Rotational constants in cm-1:     0.186570     0.086136     0.059004
Rotational constants in MHz :  5593.219850  2582.294403  1768.887501

                             ****ORCA TERMINATED NORMALLY****
TOTAL RUN TIME: 0 days 0 hours 48 minutes 36 seconds 682 msec
