                         Program Version 5.0.4 -  RELEASE  -
|  1> !B3LYP DEF2-QZVPP D4 KEEPDENS SOSCF
|  2>
|  3> %scf
|  4> convergence tight
|  5> end
|  6>
|  7> * xyz 1 2
|  8>   C   -4.88569336155230      2.98207060676121      0.04333537261272
|  9>   C   -6.14959695789773      2.35864301241116      0.02758592588736
| 10>   C   -6.25559380286015      0.96845232728990     -0.00121869885868
| 11>   C   -5.11290643775582      0.16234415122468     -0.01440284580436
| 12>   C   -3.85586007858743      0.77497453451715      0.00208204091935
| 13>   C   -3.73800009771254      2.16417133781313      0.03090801634500
| 14>   H   -7.05256446988853      2.97652953111245      0.03476026878305
| 15>   H   -7.24815752893036      0.50936420781894     -0.01176333836965
| 16>   H   -5.20066374355790     -0.92621478272232     -0.03568755561573
| 17>   H   -2.94935247147236      0.16323446923219     -0.00589977089820
| 18>   H   -2.74782466200470      2.62955680400795      0.04054469739011
| 19>   N   -4.77400026474504      4.36582607320833      0.02173325533785
| 20>   H   -5.57985384924347      4.88619583261605      0.34871705822918
| 21>   H   -3.89604227379165      4.75045189470918      0.35073557404198
| 22> **                         ****END OF INPUT****

CARTESIAN COORDINATES (ANGSTROEM)
---------------------------------
  C     -4.885693    2.982071    0.043335
  C     -6.149597    2.358643    0.027586
  C     -6.255594    0.968452   -0.001219
  C     -5.112906    0.162344   -0.014403
  C     -3.855860    0.774975    0.002082
  C     -3.738000    2.164171    0.030908
  H     -7.052564    2.976530    0.034760
  H     -7.248158    0.509364   -0.011763
  H     -5.200664   -0.926215   -0.035688
  H     -2.949352    0.163234   -0.005900
  H     -2.747825    2.629557    0.040545
  N     -4.774000    4.365826    0.021733
  H     -5.579854    4.886196    0.348717
  H     -3.896042    4.750452    0.350736

 Total Charge           Charge          ....    1
 Multiplicity           Mult            ....    2
 Number of Electrons    NEL             ....   49
 Basis Dimension        Dim             ....  609

ORBITAL ENERGIES
----------------
                 SPIN UP ORBITALS
  NO   OCC          E(Eh)            E(eV)
   0   1.0000     -14.580277      -396.7495
   1   1.0000     -10.450026      -284.3597
   2   1.0000     -10.391969      -282.7799
   3   1.0000     -10.388471      -282.6847
   4   1.0000     -10.388452      -282.6842
   5   1.0000     -10.375969      -282.3445
   6   1.0000     -10.375956      -282.3441
   7   1.0000      -1.157632       -31.5008
   8   1.0000      -1.051273       -28.6066
   9   1.0000      -0.947930       -25.7945
  10   1.0000      -0.945672       -25.7331
  11   1.0000      -0.820388       -22.3239
  12   1.0000      -0.810564       -22.0566
  13   1.0000      -0.734044       -19.9744
  14   1.0000      -0.730676       -19.8827
  15   1.0000      -0.685418       -18.6512
  16   1.0000      -0.642662       -17.4877
  17   1.0000      -0.631268       -17.1777
  18   1.0000      -0.615643       -16.7525
  19   1.0000      -0.613981       -16.7073
  20   1.0000      -0.560484       -15.2516
  21   1.0000      -0.541712       -14.7407
  22   1.0000      -0.540790       -14.7157
  23   1.0000      -0.456605       -12.4248
  24   1.0000      -0.443153       -12.0588
  25   0.0000      -0.211555        -5.7567
  26   0.0000      -0.211394        -5.7523
  27   0.0000      -0.147908        -4.0248
  28   0.0000      -0.115185        -3.1344
  29   0.0000      -0.110754        -3.0138

                 SPIN DOWN ORBITALS
  NO   OCC          E(Eh)            E(eV)
   0   1.0000     -14.572101      -396.5270
   1   1.0000     -10.448169      -284.3091
   2   1.0000     -10.386843      -282.6404
   3   1.0000     -10.385938      -282.6157
   4   1.0000     -10.385919      -282.6152
   5   1.0000     -10.377035      -282.3735
   6   1.0000     -10.377015      -282.3729
   7   1.0000      -1.143691       -31.1214
   8   1.0000      -1.042905       -28.3789
   9   1.0000      -0.944670       -25.7058
  10   1.0000      -0.932099       -25.3637
  11   1.0000      -0.816740       -22.2246
  12   1.0000      -0.804592       -21.8941
  13   1.0000      -0.731104       -19.8943
  14   1.0000      -0.725437       -19.7401
  15   1.0000      -0.680996       -18.5308
  16   1.0000      -0.638985       -17.3877
  17   1.0000      -0.628280       -17.0964
  18   1.0000      -0.613293       -16.6885
  19   1.0000      -0.586224       -15.9520
  20   1.0000      -0.557985       -15.1835
  21   1.0000      -0.538825       -14.6622
  22   1.0000      -0.506548       -13.7839
  23   1.0000      -0.448722       -12.2103
  24   0.0000      -0.357936        -9.7399
  25   0.0000      -0.200301        -5.4505
  26   0.0000      -0.185903        -5.0587
  27   0.0000      -0.145284        -3.9534
  28   0.0000      -0.114221        -3.1081

MULLIKEN ATOMIC CHARGES AND SPIN POPULATIONS
--------------------------------------------
   0 C :    0.227876    0.136368
   1 C :    0.040880    0.163481
   2 C :   -0.037271   -0.063690
   3 C :    0.031803    0.342400
   4 C :   -0.038048   -0.063794
   5 C :    0.042213    0.163661
   6 H :    0.091188   -0.005751
   7 H :    0.110067    0.000567
   8 H :    0.121865   -0.012516
   9 H :    0.110792    0.000559
  10 H :    0.090415   -0.005767
  11 N :   -0.223388    0.355452
  12 H :    0.215723   -0.005483
  13 H :    0.215885   -0.005488
Sum of atomic charges         :    1.0000000

LOEWDIN ATOMIC CHARGES AND SPIN POPULATIONS
-------------------------------------------
   0 C :   -0.162496    0.157485
   1 C :    0.144673    0.116880
   2 C :    0.132519    0.021170
   3 C :    0.172062    0.208551
   4 C :    0.132538    0.021152
   5 C :    0.144651    0.116878
   6 H :   -0.030079    0.010603
   7 H :   -0.026239   -0.004159
   8 H :   -0.021733    0.023241
   9 H :   -0.026234   -0.004163
  10 H :   -0.030111    0.010605
  11 N :    0.805929    0.256802
  12 H :   -0.117703    0.032473
  13 H :   -0.117778    0.032484

  Mayer bond orders larger than 0.100000
B(  0-C ,  1-C ) :   1.0980 B(  0-C ,  5-C ) :   1.0972 B(  0-C , 11-N ) :   1.2674
B(  1-C ,  2-C ) :   1.4302 B(  1-C ,  6-H ) :   0.9549 B(  2-C ,  3-C ) :   1.2305
B(  2-C ,  7-H ) :   0.9541 B(  3-C ,  4-C ) :   1.2315 B(  3-C ,  8-H ) :   0.9494
B(  4-C ,  5-C ) :   1.4302 B(  4-C ,  9-H ) :   0.9541 B(  5-C , 10-H ) :   0.9551
B( 11-N , 12-H ) :   0.9444 B( 11-N , 13-H ) :   0.9442

Dispersion correction           -0.018866650
FINAL SINGLE POINT ENERGY      -287.292378916116

DIPOLE MOMENT
-------------
                                X             Y             Z
Electronic contribution:      0.01385       0.17044      -0.19061
Nuclear contribution   :      0.05809       0.72683       0.52928
                        -----------------------------------------
Total Dipole Moment    :      0.07195       0.89727       0.33867
                        -----------------------------------------
Magnitude (a.u.)       :      0.96175
Magnitude (Debye)      :      2.44457

Rotational constants in cm-1:     0.186570     0.086136     0.059004
Rotational constants in MHz :  5593.219850  2582.294403  1768.887501

                             ****ORCA TERMINATED NORMALLY****
TOTAL RUN TIME: 0 days 0 hours 57 minutes 32 seconds 336 msec
