                         Program Version 5.0.4 -  RELEASE  -
|  1> !BP86 DEF2-SVP NUMFREQ
|  2> %ELPROP
|  3>    POLAR 1
|  4> END
|  5>
|  6> * xyz 0 1
|  7>   C      -4.127240      1.598090      0.000000
|  8>   C      -5.236140      0.753090      0.000000
|  9>   C      -5.058790     -0.629750      0.000000
| 10>   C      -3.772550     -1.167590      0.000000
| 11>   C      -2.663650     -0.322590      0.000000
| 12>   C      -2.840990      1.060250      0.000000
| 13>   H      -4.265550      2.676550      0.000000
| 14>   H      -1.976170      1.719260      0.000000
| 15>   H      -1.660520     -0.742040      0.000000
| 16>   H      -3.634240     -2.246050      0.000000
| 17>   H      -5.923620     -1.288760      0.000000
| 18>   H      -6.239270      1.172540      0.000000
| 19> **                         ****END OF INPUT****

CARTESIAN COORDINATES (ANGSTROEM)
---------------------------------
  C     -4.127240    1.598090    0.000000
  C     -5.236140    0.753090    0.000000
  C     -5.058790   -0.629750    0.000000
  C     -3.772550   -1.167590    0.000000
  C     -2.663650   -0.322590    0.000000
  C     -2.840990    1.060250    0.000000
  H     -4.265550    2.676550    0.000000
  H     -1.976170    1.719260    0.000000
  H     -1.660520   -0.742040    0.000000
  H     -3.634240   -2.246050    0.000000
  H     -5.923620   -1.288760    0.000000
  H     -6.239270    1.172540    0.000000

 Total Charge           Charge          ....    0
 Multiplicity           Mult            ....    1
 Number of Electrons    NEL             ....   42
 Basis Dimension        Dim             ....  114

ORBITAL ENERGIES
----------------

  NO   OCC          E(Eh)            E(eV)
   0   2.0000      -9.915697      -269.8198
   1   2.0000      -9.915613      -269.8175
   2   2.0000      -9.915608      -269.8174
   3   2.0000      -9.915370      -269.8109
   4   2.0000      -9.915365      -269.8108
   5   2.0000      -9.915330      -269.8099
   6   2.0000      -0.773328       -21.0433
   7   2.0000      -0.670313       -18.2401
   8   2.0000      -0.670307       -18.2400
   9   2.0000      -0.539843       -14.6899
  10   2.0000      -0.539842       -14.6898
  11   2.0000      -0.472821       -12.8661
  12   2.0000      -0.407528       -11.0894
  13   2.0000      -0.401197       -10.9171
  14   2.0000      -0.376026       -10.2322
  15   2.0000      -0.376020       -10.2320
  16   2.0000      -0.332523        -9.0484
  17   2.0000      -0.303284        -8.2528
  18   2.0000      -0.303283        -8.2528
  19   2.0000      -0.231666        -6.3040
  20   2.0000      -0.231660        -6.3038
  21   0.0000      -0.039484        -1.0744
  22   0.0000      -0.039482        -1.0744
  23   0.0000       0.040001         1.0885
  24   0.0000       0.083289         2.2664
  25   0.0000       0.083293         2.2665

MULLIKEN ATOMIC CHARGES
-----------------------
   0 C :    0.004803
   1 C :    0.004805
   2 C :    0.004899
   3 C :    0.004806
   4 C :    0.004801
   5 C :    0.004908
   6 H :   -0.004835
   7 H :   -0.004853
   8 H :   -0.004825
   9 H :   -0.004835
  10 H :   -0.004850
  11 H :   -0.004825
Sum of atomic charges:    0.0000000

LOEWDIN ATOMIC CHARGES
----------------------
   0 C :   -0.029361
   1 C :   -0.029362
   2 C :   -0.029360
   3 C :   -0.029365
   4 C :   -0.029362
   5 C :   -0.029357
   6 H :    0.029361
   7 H :    0.029358
   8 H :    0.029364
   9 H :    0.029361
  10 H :    0.029359
  11 H :    0.029365

  Mayer bond orders larger than 0.100000
B(  0-C ,  1-C ) :   1.3907 B(  0-C ,  5-C ) :   1.3906 B(  0-C ,  6-H ) :   0.9807
B(  1-C ,  2-C ) :   1.3906 B(  1-C , 11-H ) :   0.9807 B(  2-C ,  3-C ) :   1.3906
B(  2-C , 10-H ) :   0.9807 B(  3-C ,  4-C ) :   1.3907 B(  3-C ,  9-H ) :   0.9807
B(  4-C ,  5-C ) :   1.3906 B(  4-C ,  8-H ) :   0.9807 B(  5-C ,  7-H ) :   0.9807

FINAL SINGLE POINT ENERGY      -232.077067325525

DIPOLE MOMENT
-------------
                                X             Y             Z
Electronic contribution:      0.00001       0.00001      -0.00000
Nuclear contribution   :     -0.00001      -0.00000       0.00000
                        -----------------------------------------
Total Dipole Moment    :      0.00000       0.00001      -0.00000
                        -----------------------------------------
Magnitude (a.u.)       :      0.00001
Magnitude (Debye)      :      0.00003

VIBRATIONAL FREQUENCIES
-----------------------

Scaling factor for frequencies =  1.000000000 (already applied!)

   0:         0.00 cm**-1
   1:         0.00 cm**-1
   2:         0.00 cm**-1
   3:         0.00 cm**-1
   4:         0.00 cm**-1
   5:         0.00 cm**-1
   6:       368.15 cm**-1
   7:       368.59 cm**-1
   8:       579.91 cm**-1
   9:       594.72 cm**-1
  10:       594.78 cm**-1
  11:       703.51 cm**-1
  12:       780.31 cm**-1
  13:       780.51 cm**-1
  14:       921.91 cm**-1
  15:       922.00 cm**-1
  16:       958.78 cm**-1
  17:       986.07 cm**-1
  18:      1027.09 cm**-1
  19:      1030.18 cm**-1
  20:      1030.80 cm**-1
  21:      1105.43 cm**-1
  22:      1137.90 cm**-1
  23:      1138.02 cm**-1
  24:      1297.94 cm**-1
  25:      1424.02 cm**-1
  26:      1471.56 cm**-1
  27:      1471.80 cm**-1
  28:      1643.37 cm**-1
  29:      1643.94 cm**-1
  30:      3219.84 cm**-1
  31:      3227.65 cm**-1
  32:      3229.09 cm**-1
  33:      3241.61 cm**-1
  34:      3243.43 cm**-1
  35:      3251.54 cm**-1

IR SPECTRUM
-----------

 Mode   freq       eps      Int      T**2         TX        TY        TZ
       cm**-1   L/(mol*cm) km/mol    a.u.
----------------------------------------------------------------------------
  6:    368.15   0.000000    0.00  0.000000  ( 0.000000 -0.000000  0.000061)
  7:    368.59   0.000000    0.00  0.000000  (-0.000000  0.000000  0.000035)
  8:    579.91   0.015577   78.72  0.008383  (-0.000000  0.000000  0.091557)
  9:    594.72   0.000000    0.00  0.000000  (-0.000000  0.000002 -0.000000)
 10:    594.78   0.000000    0.00  0.000000  (-0.000001 -0.000002  0.000002)
 11:    703.51   0.000000    0.00  0.000000  (-0.000000  0.000000  0.000001)
 12:    780.31   0.000000    0.00  0.000000  (-0.000000  0.000000  0.000002)
 13:    780.51   0.000000    0.00  0.000000  ( 0.000000  0.000000  0.000002)
 14:    921.91   0.000000    0.00  0.000000  (-0.000000 -0.000000  0.000021)
 15:    922.00   0.000000    0.00  0.000000  (-0.000000 -0.000000  0.000020)
 16:    958.78   0.000000    0.00  0.000000  (-0.000000 -0.000000 -0.000001)
 17:    986.07   0.000003    0.01  0.000001  ( 0.000559  0.000743 -0.000000)
 18:   1027.09   0.000000    0.00  0.000000  ( 0.000004  0.000026 -0.000000)
 19:   1030.18   0.001328    6.71  0.000402  (-0.008694  0.018078 -0.000000)
 20:   1030.80   0.001133    5.73  0.000343  ( 0.016857  0.007676  0.000000)
 21:   1105.43   0.000002    0.01  0.000001  ( 0.000540 -0.000502  0.000000)
 22:   1137.90   0.000000    0.00  0.000000  ( 0.000001  0.000003 -0.000000)
 23:   1138.02   0.000000    0.00  0.000000  ( 0.000000  0.000001  0.000000)
 24:   1297.94   0.000000    0.00  0.000000  ( 0.000000  0.000002  0.000000)
 25:   1424.02   0.000000    0.00  0.000000  (-0.000037  0.000052  0.000000)
 26:   1471.56   0.001327    6.70  0.000281  (-0.010145  0.013358  0.000000)
 27:   1471.80   0.001230    6.22  0.000261  ( 0.012761  0.009899 -0.000000)
 28:   1643.37   0.000000    0.00  0.000000  ( 0.000000  0.000001  0.000000)
 29:   1643.94   0.000000    0.00  0.000000  ( 0.000000  0.000001 -0.000000)
 30:   3219.84   0.000005    0.03  0.000000  ( 0.000628  0.000322 -0.000000)
 31:   3227.65   0.000000    0.00  0.000000  ( 0.000035  0.000023 -0.000000)
 32:   3229.09   0.000000    0.00  0.000000  (-0.000003 -0.000003  0.000000)
 33:   3241.61   0.005114   25.85  0.000492  ( 0.019910  0.009795 -0.000000)
 34:   3243.43   0.006074   30.70  0.000584  (-0.010750  0.021653  0.000000)
 35:   3251.54   0.000000    0.00  0.000000  (-0.000028 -0.000018  0.000000)

--------------------------
THERMOCHEMISTRY AT 298.15K
--------------------------

Temperature         ... 298.15 K
Pressure            ... 1.00 atm
Total Mass          ... 78.11 AMU

Throughout the following assumptions are being made:
  (1) The electronic state is orbitally nondegenerate
  (2) There are no thermally accessible electronically excited states
  (3) Hindered rotations indicated by low frequency modes are not
      treated as such but are treated as vibrations and this may
      cause some error
  (4) All equations used are the standard statistical mechanics
      equations for an ideal gas
  (5) All vibrations are strictly harmonic

freq.     368.15  E(vib)   ...       0.21
freq.     368.59  E(vib)   ...       0.21
freq.     579.91  E(vib)   ...       0.11
freq.     594.72  E(vib)   ...       0.10
freq.     594.78  E(vib)   ...       0.10
freq.     703.51  E(vib)   ...       0.07
freq.     780.31  E(vib)   ...       0.05
freq.     780.51  E(vib)   ...       0.05
freq.     921.91  E(vib)   ...       0.03
freq.     922.00  E(vib)   ...       0.03
freq.     958.78  E(vib)   ...       0.03
freq.     986.07  E(vib)   ...       0.02
freq.    1027.09  E(vib)   ...       0.02
freq.    1030.18  E(vib)   ...       0.02
freq.    1030.80  E(vib)   ...       0.02
freq.    1105.43  E(vib)   ...       0.02
freq.    1137.90  E(vib)   ...       0.01
freq.    1138.02  E(vib)   ...       0.01
freq.    1297.94  E(vib)   ...       0.01
freq.    1424.02  E(vib)   ...       0.00
freq.    1471.56  E(vib)   ...       0.00
freq.    1471.80  E(vib)   ...       0.00
freq.    1643.37  E(vib)   ...       0.00
freq.    1643.94  E(vib)   ...       0.00
freq.    3219.84  E(vib)   ...       0.00
freq.    3227.65  E(vib)   ...       0.00
freq.    3229.09  E(vib)   ...       0.00
freq.    3241.61  E(vib)   ...       0.00
freq.    3243.43  E(vib)   ...       0.00
freq.    3251.54  E(vib)   ...       0.00

------------
INNER ENERGY
------------

The inner energy is: U= E(el) + E(ZPE) + E(vib) + E(rot) + E(trans)
    E(el)   - is the total energy from the electronic structure calculation
              = E(kin-el) + E(nuc-el) + E(el-el) + E(nuc-nuc)
    E(ZPE)  - the the zero temperature vibrational energy from the frequency calculation
    E(vib)  - the the finite temperature correction to E(ZPE) due to population
              of excited vibrational states
    E(rot)  - is the rotational thermal energy
    E(trans)- is the translational thermal energy

Summary of contributions to the inner energy U:
Electronic energy                ...   -232.07706733 Eh
Zero point energy                ...      0.09885981 Eh      62.04 kcal/mol
Thermal vibrational correction   ...      0.00184172 Eh       1.16 kcal/mol
Thermal rotational correction    ...      0.00141627 Eh       0.89 kcal/mol
Thermal translational correction ...      0.00141627 Eh       0.89 kcal/mol
-----------------------------------------------------------------------
Total thermal energy                   -231.97353326 Eh

Summary of corrections to the electronic energy:
(perhaps to be used in another calculation)
Total thermal correction                  0.00467426 Eh       2.93 kcal/mol
Non-thermal (ZPE) correction              0.09885981 Eh      62.04 kcal/mol
-----------------------------------------------------------------------
Total correction                          0.10353407 Eh      64.97 kcal/mol

--------
ENTHALPY
--------

The enthalpy is H = U + kB*T
                kB is Boltzmann's constant
Total free energy                 ...   -231.97353326 Eh
Thermal Enthalpy correction       ...      0.00094421 Eh       0.59 kcal/mol
-----------------------------------------------------------------------
Total Enthalpy                    ...   -231.97258905 Eh

Note: Rotational entropy computed according to Herzberg
Infrared and Raman Spectra, Chapter V,1, Van Nostrand Reinhold, 1945
Point Group:  D6h, Symmetry Number:  12
Rotational constants in cm-1:     0.190144     0.190142     0.095071

Vibrational entropy computed according to the QRRHO of S. Grimme
Chem.Eur.J. 2012 18 9955

-------
ENTROPY
-------

The entropy contributions are T*S = T*(S(el)+S(vib)+S(rot)+S(trans))
     S(el)   - electronic entropy
     S(vib)  - vibrational entropy
     S(rot)  - rotational entropy
     S(trans)- translational entropy
The entropies will be listed as multiplied by the temperature to get
units of energy

Electronic entropy                ...      0.00000000 Eh      0.00 kcal/mol
Vibrational entropy               ...      0.00251780 Eh      1.58 kcal/mol
Rotational entropy                ...      0.00984282 Eh      6.18 kcal/mol
Translational entropy             ...      0.01852142 Eh     11.62 kcal/mol
-----------------------------------------------------------------------
Final entropy term                ...      0.03088204 Eh     19.38 kcal/mol

In case the symmetry of your molecule has not been determined correctly
or in case you have a reason to use a different symmetry number we print
out the resulting rotational entropy values for sn=1,12 :
 --------------------------------------------------------
|  sn= 1 | S(rot)=       0.01218902 Eh      7.65 kcal/mol|
|  sn= 2 | S(rot)=       0.01153456 Eh      7.24 kcal/mol|
|  sn= 3 | S(rot)=       0.01115173 Eh      7.00 kcal/mol|
|  sn= 4 | S(rot)=       0.01088011 Eh      6.83 kcal/mol|
|  sn= 5 | S(rot)=       0.01066942 Eh      6.70 kcal/mol|
|  sn= 6 | S(rot)=       0.01049728 Eh      6.59 kcal/mol|
|  sn= 7 | S(rot)=       0.01035173 Eh      6.50 kcal/mol|
|  sn= 8 | S(rot)=       0.01022565 Eh      6.42 kcal/mol|
|  sn= 9 | S(rot)=       0.01011444 Eh      6.35 kcal/mol|
|  sn=10 | S(rot)=       0.01001496 Eh      6.28 kcal/mol|
|  sn=11 | S(rot)=       0.00992497 Eh      6.23 kcal/mol|
|  sn=12 | S(rot)=       0.00984282 Eh      6.18 kcal/mol|
 --------------------------------------------------------

-------------------
GIBBS FREE ENERGY
-------------------

The Gibbs free energy is G = H - T*S

Total enthalpy                    ...   -231.97258905 Eh
Total entropy correction          ...     -0.03088204 Eh    -19.38 kcal/mol
-----------------------------------------------------------------------
Final Gibbs free energy         ...   -232.00347109 Eh

For completeness - the Gibbs free energy minus the electronic energy
G-E(el)                           ...      0.07359624 Eh     46.18 kcal/mol

                             ****ORCA TERMINATED NORMALLY****
TOTAL RUN TIME: 0 days 0 hours 30 minutes 55 seconds 744 msec
