                         Program Version 4.2.1 -  RELEASE  -
|  1> !B3LYP DEF2-SVP D4 OPT FREQ
|  2>
|  3> * xyz 0 1
|  4> C         -6.23762        0.35965       -0.63275
|  5> C         -6.48962        0.09884       -2.01596
|  6> C         -6.18682       -1.18758       -2.51813
|  7> C         -5.65698       -2.18076       -1.69554
|  8> C         -5.41512       -1.91852       -0.35206
|  9> C         -5.70191       -0.66169        0.17576
| 10> C         -6.51822        1.68942        0.01946
| 11> H         -5.91490        2.48490       -0.46570
| 12> H         -6.25418        1.68863        1.09864
| 13> H         -7.60001        1.92723       -0.05381
| 14> H         -6.36066       -1.43123       -3.55847
| 15> H         -5.43325       -3.15828       -2.10323
| 16> H         -5.00368       -2.69178        0.28398
| 17> H         -5.50252       -0.48784        1.22621
| 18> N         -7.03409        1.08043       -2.91427
| 19> O         -7.22324        0.80345       -4.06084
| 20> O         -7.33652        2.29459       -2.51087
| 21> **                         ****END OF INPUT****
 Total Charge           Charge          ....    0
 Multiplicity           Mult            ....    1
 Number of Electrons    NEL             ....   72
Dispersion correction           -0.029001415
FINAL SINGLE POINT ENERGY      -475.464790907352
Dispersion correction            ...
Dispersion correction           -0.029156218
FINAL SINGLE POINT ENERGY      -475.476731455815
Dispersion correction            ...
Dispersion correction           -0.029140185
FINAL SINGLE POINT ENERGY      -475.479070968966
Dispersion correction            ...
FINAL SINGLE POINT ENERGY      -475.479527827612
FINAL SINGLE POINT ENERGY      -475.479452228774
FINAL SINGLE POINT ENERGY      -475.479599051135
Dispersion correction           -0.029121701
FINAL SINGLE POINT ENERGY      -475.479617570065
Dispersion correction            ...
Dispersion correction           -0.029117373
FINAL SINGLE POINT ENERGY      -475.479620435533
Dispersion correction            ...
                    ***********************HURRAY********************

CARTESIAN COORDINATES (ANGSTROEM)
---------------------------------
  C     -6.241708    0.383089   -0.619640
  C     -6.472342    0.074875   -1.978291
  C     -6.189026   -1.183673   -2.520556
  C     -5.659092   -2.184983   -1.713867
  C     -5.417647   -1.916358   -0.363765
  C     -5.706272   -0.657054    0.160811
  C     -6.521098    1.708383    0.039322
  H     -5.958199    2.523707   -0.436561
  H     -6.247895    1.657319    1.103241
  H     -7.580750    1.987960   -0.047468
  H     -6.395654   -1.348007   -3.576968
  H     -5.436640   -3.167261   -2.136194
  H     -5.003105   -2.691028    0.286205
  H     -5.512461   -0.459279    1.217917
  N     -7.031791    1.071252   -2.919728
  O     -7.207732    0.722084   -4.076153
  O     -7.287926    2.188435   -2.495884

 Multiplicity           Mult            ....    1
 Number of Electrons    NEL             ....   72
 Basis Dimension        Dim             ....  175

ORBITAL ENERGIES
----------------

  NO   OCC          E(Eh)            E(eV)
   0   2.0000     -19.158088      -521.3181
   1   2.0000     -19.157330      -521.2975
   2   2.0000     -14.556193      -396.0942
   3   2.0000     -10.247982      -278.8618
   4   2.0000     -10.229377      -278.3555
   5   2.0000     -10.215588      -277.9803
   6   2.0000     -10.214540      -277.9518
   7   2.0000     -10.210993      -277.8552
   8   2.0000     -10.209949      -277.8268
   9   2.0000     -10.193988      -277.3925
  10   2.0000      -1.219385       -33.1811
  11   2.0000      -1.044148       -28.4127
  12   2.0000      -0.883800       -24.0494
  13   2.0000      -0.799161       -21.7463
  14   2.0000      -0.784118       -21.3369
  15   2.0000      -0.711781       -19.3685
  16   2.0000      -0.675556       -18.3828
  17   2.0000      -0.615628       -16.7521
  18   2.0000      -0.586928       -15.9711
  19   2.0000      -0.545825       -14.8527
  20   2.0000      -0.538216       -14.6456
  21   2.0000      -0.508436       -13.8353
  22   2.0000      -0.500779       -13.6269
  23   2.0000      -0.482475       -13.1288
  24   2.0000      -0.455551       -12.3962
  25   2.0000      -0.431864       -11.7516
  26   2.0000      -0.427169       -11.6239
  27   2.0000      -0.400727       -10.9043
  28   2.0000      -0.380319       -10.3490
  29   2.0000      -0.378636       -10.3032
  30   2.0000      -0.369734       -10.0610
  31   2.0000      -0.309083        -8.4106
  32   2.0000      -0.305381        -8.3098
  33   2.0000      -0.288104        -7.8397
  34   2.0000      -0.282891        -7.6979
  35   2.0000      -0.270860        -7.3705
  36   0.0000      -0.086629        -2.3573
  37   0.0000      -0.028439        -0.7739
  38   0.0000      -0.004841        -0.1317
  39   0.0000       0.053568         1.4577
  40   0.0000       0.077019         2.0958

MULLIKEN ATOMIC CHARGES
-----------------------
   0 C :   -0.102294
   1 C :    0.128622
   2 C :   -0.007424
   3 C :    0.022594
   4 C :    0.058486
   5 C :   -0.044350
   6 C :    0.154431
   7 H :    0.033095
   8 H :   -0.001760
   9 H :    0.033083
  10 H :    0.008823
  11 H :   -0.004332
  12 H :   -0.002584
  13 H :   -0.015613
  14 N :    0.229324
  15 O :   -0.242015
  16 O :   -0.248085
Sum of atomic charges:   -0.0000000

LOEWDIN ATOMIC CHARGES
----------------------
   0 C :    0.001570
   1 C :   -0.027371
   2 C :   -0.000476
   3 C :   -0.022848
   4 C :    0.000434
   5 C :   -0.022890
   6 C :   -0.042235
   7 H :    0.041487
   8 H :    0.023764
   9 H :    0.040946
  10 H :    0.040329
  11 H :    0.033219
  12 H :    0.034076
  13 H :    0.030528
  14 N :    0.275259
  15 O :   -0.206655
  16 O :   -0.199138

  Mayer bond orders larger than 0.100000
B(  0-C ,  1-C ) :   1.3579 B(  0-C ,  5-C ) :   1.3836 B(  0-C ,  6-C ) :   1.1136
B(  1-C ,  2-C ) :   1.3760 B(  1-C , 14-N ) :   0.8630 B(  2-C ,  3-C ) :   1.3578
B(  2-C , 10-H ) :   0.9758 B(  3-C ,  4-C ) :   1.3525 B(  3-C , 11-H ) :   0.9844
B(  4-C ,  5-C ) :   1.3779 B(  4-C , 12-H ) :   0.9841 B(  5-C , 13-H ) :   0.9784
B(  6-C ,  7-H ) :   0.9303 B(  6-C ,  8-H ) :   0.9389 B(  6-C ,  9-H ) :   0.9331
B( 14-N , 15-O ) :   1.5458 B( 14-N , 16-O ) :   1.5112 B( 15-O , 16-O ) :   0.2752

Dispersion correction           -0.029117569
FINAL SINGLE POINT ENERGY      -475.479620866250

DIPOLE MOMENT
-------------
                                X             Y             Z
Electronic contribution:     -1.96465       1.07365      -6.61354
Nuclear contribution   :      2.57544      -2.06340       7.76952
                        -----------------------------------------
Total Dipole Moment    :      0.61080      -0.98974       1.15598
                        -----------------------------------------
Magnitude (a.u.)       :      1.63980
Magnitude (Debye)      :      4.16805

Dispersion correction in the Hessian             ...

VIBRATIONAL FREQUENCIES
-----------------------

Scaling factor for frequencies =  1.000000000  (already applied!)

   0:         0.00 cm**-1
   1:         0.00 cm**-1
   2:         0.00 cm**-1
   3:         0.00 cm**-1
   4:         0.00 cm**-1
   5:         0.00 cm**-1
   6:       -32.10 cm**-1 ***imaginary mode***
   7:       137.61 cm**-1
   8:       230.32 cm**-1
   9:       263.66 cm**-1
  10:       279.23 cm**-1
  11:       372.77 cm**-1
  12:       396.59 cm**-1
  13:       446.36 cm**-1
  14:       509.58 cm**-1
  15:       538.05 cm**-1
  16:       567.84 cm**-1
  17:       684.88 cm**-1
  18:       710.47 cm**-1
  19:       748.13 cm**-1
  20:       808.63 cm**-1
  21:       809.72 cm**-1
  22:       886.10 cm**-1
  23:       895.72 cm**-1
  24:       996.73 cm**-1
  25:      1007.59 cm**-1
  26:      1031.31 cm**-1
  27:      1053.07 cm**-1
  28:      1074.10 cm**-1
  29:      1095.70 cm**-1
  30:      1168.16 cm**-1
  31:      1173.23 cm**-1
  32:      1223.13 cm**-1
  33:      1290.19 cm**-1
  34:      1367.32 cm**-1
  35:      1401.12 cm**-1
  36:      1414.20 cm**-1
  37:      1447.41 cm**-1
  38:      1448.78 cm**-1
  39:      1484.56 cm**-1
  40:      1512.62 cm**-1
  41:      1626.30 cm**-1
  42:      1652.69 cm**-1
  43:      1692.31 cm**-1
  44:      3050.53 cm**-1
  45:      3133.36 cm**-1
  46:      3139.92 cm**-1
  47:      3180.33 cm**-1
  48:      3192.53 cm**-1
  49:      3203.74 cm**-1
  50:      3240.32 cm**-1

IR SPECTRUM
-----------

 Mode    freq (cm**-1)   T**2         TX         TY         TZ
-------------------------------------------------------------------
   7:       137.61    1.499333  ( -1.127556  -0.380686   0.288146)
   8:       230.32    0.467520  (  0.632317   0.216691  -0.144016)
   9:       263.66    0.267208  ( -0.490411  -0.137258   0.088689)
  10:       279.23    2.074322  (  0.060624  -0.955293  -1.076133)
  11:       372.77    1.370662  (  0.411314  -0.580628   0.929707)
  12:       396.59    0.444290  ( -0.162477   0.614237   0.201504)
  13:       446.36    0.375301  ( -0.559662  -0.196358   0.153373)
  14:       509.58    4.091899  ( -1.869069  -0.606849   0.479807)
  15:       538.05    0.388535  ( -0.090507   0.541453   0.295250)
  16:       567.84    0.362104  ( -0.197241   0.561806  -0.087029)
  17:       684.88    6.810905  ( -1.002626   1.620178  -1.783443)
  18:       710.47    3.504736  ( -1.722102  -0.583191   0.446083)
  19:       748.13   46.978305  ( -6.344622  -2.074347   1.556010)
  20:       808.63    6.104390  ( -2.242815  -0.803618   0.654498)
  21:       809.72    4.295215  (  0.842645  -0.819612   1.706869)
  22:       886.10   38.496517  ( -2.318445   3.940420  -4.194570)
  23:       895.72    0.139807  ( -0.340992  -0.124417   0.089733)
  24:       996.73    0.284778  (  0.478954   0.147546  -0.183332)
  25:      1007.59    1.238209  (  0.370892  -0.363135   0.984267)
  26:      1031.31    0.108046  ( -0.318819  -0.042718   0.067640)
  27:      1053.07    4.231798  (  1.899213   0.633761  -0.472371)
  28:      1074.10    4.913421  ( -0.585525   2.092317   0.439082)
  29:      1095.70   19.942092  (  1.657914  -3.772905   1.720060)
  30:      1168.16    4.892750  ( -0.582387   0.202728  -2.124259)
  31:      1173.23    6.622011  (  0.773856  -0.589323   2.382406)
  32:      1223.13    9.336047  ( -1.149195   1.913683  -2.086436)
  33:      1290.19    2.034027  (  0.322569  -1.308546  -0.466565)
  34:      1367.32   16.874291  (  0.381851   1.644428   3.744908)
  35:      1401.12   20.041377  (  1.686409  -3.270669   2.549534)
  36:      1414.20  227.242896  ( -5.687054   9.920049  -9.823082)
  37:      1447.41   20.139780  ( -1.023750  -0.047073  -4.369153)
  38:      1448.78    6.590095  (  2.364536   0.824243  -0.565409)
  39:      1484.56   17.783328  (  1.463921  -1.909123   3.463454)
  40:      1512.62   14.415085  ( -1.207151   3.599626  -0.023817)
  41:      1626.30   24.263589  ( -0.879901   4.363033   2.110285)
  42:      1652.69   64.093322  (  0.604028   3.659404   7.094874)
  43:      1692.31  164.705122  ( -0.573267   8.888284   9.239854)
  44:      3050.53   11.891162  ( -0.060551   2.030839   2.786250)
  45:      3133.36    2.693778  (  1.558281   0.514926   0.019714)
  46:      3139.92   14.809942  ( -0.710778  -0.208035  -3.776435)
  47:      3180.33    1.647085  (  0.173175  -1.021849  -0.756916)
  48:      3192.53    9.252911  (  0.472205   0.757630   2.907908)
  49:      3203.74    7.844254  (  0.999771  -2.512078   0.730873)
  50:      3240.32    4.244875  (  0.659920  -0.528431   1.878867)

--------------------------
THERMOCHEMISTRY AT 298.15K
--------------------------

Temperature         ... 298.15 K
Pressure            ... 1.00 atm
Total Mass          ... 137.14 AMU

Throughout the following assumptions are being made:
  (1) The electronic state is orbitally nondegenerate
  (2) There are no thermally accessible electronically excited states
  (3) Hindered rotations indicated by low frequency modes are not
      treated as such but are treated as vibrations and this may
      cause some error
  (4) All equations used are the standard statistical mechanics
      equations for an ideal gas
  (5) All vibrations are strictly harmonic

freq.     137.61  E(vib)   ...       0.42
freq.     230.32  E(vib)   ...       0.32
freq.     263.66  E(vib)   ...       0.29
freq.     279.23  E(vib)   ...       0.28
freq.     372.77  E(vib)   ...       0.21
freq.     396.59  E(vib)   ...       0.20
freq.     446.36  E(vib)   ...       0.17
freq.     509.58  E(vib)   ...       0.14
freq.     538.05  E(vib)   ...       0.12
freq.     567.84  E(vib)   ...       0.11
freq.     684.88  E(vib)   ...       0.07
freq.     710.47  E(vib)   ...       0.07
freq.     748.13  E(vib)   ...       0.06
freq.     808.63  E(vib)   ...       0.05
freq.     809.72  E(vib)   ...       0.05
freq.     886.10  E(vib)   ...       0.04
freq.     895.72  E(vib)   ...       0.03
freq.     996.73  E(vib)   ...       0.02
freq.    1007.59  E(vib)   ...       0.02
freq.    1031.31  E(vib)   ...       0.02
freq.    1053.07  E(vib)   ...       0.02
freq.    1074.10  E(vib)   ...       0.02
freq.    1095.70  E(vib)   ...       0.02
freq.    1168.16  E(vib)   ...       0.01
freq.    1173.23  E(vib)   ...       0.01
freq.    1223.13  E(vib)   ...       0.01
freq.    1290.19  E(vib)   ...       0.01
freq.    1367.32  E(vib)   ...       0.01
freq.    1401.12  E(vib)   ...       0.00
freq.    1414.20  E(vib)   ...       0.00
freq.    1447.41  E(vib)   ...       0.00
freq.    1448.78  E(vib)   ...       0.00
freq.    1484.56  E(vib)   ...       0.00
freq.    1512.62  E(vib)   ...       0.00
freq.    1626.30  E(vib)   ...       0.00
freq.    1652.69  E(vib)   ...       0.00
freq.    1692.31  E(vib)   ...       0.00
freq.    3050.53  E(vib)   ...       0.00
freq.    3133.36  E(vib)   ...       0.00
freq.    3139.92  E(vib)   ...       0.00
freq.    3180.33  E(vib)   ...       0.00
freq.    3192.53  E(vib)   ...       0.00
freq.    3203.74  E(vib)   ...       0.00
freq.    3240.32  E(vib)   ...       0.00

------------
INNER ENERGY
------------

The inner energy is: U= E(el) + E(ZPE) + E(vib) + E(rot) + E(trans)
    E(el)   - is the total energy from the electronic structure calculation
              = E(kin-el) + E(nuc-el) + E(el-el) + E(nuc-nuc)
    E(ZPE)  - the the zero temperature vibrational energy from the frequency calculation
    E(vib)  - the the finite temperature correction to E(ZPE) due to population
              of excited vibrational states
    E(rot)  - is the rotational thermal energy
    E(trans)- is the translational thermal energy

Summary of contributions to the inner energy U:
Electronic energy                ...   -475.47962087 Eh
Zero point energy                ...      0.13119273 Eh      82.32 kcal/mol
Thermal vibrational correction   ...      0.00449551 Eh       2.82 kcal/mol
Thermal rotational correction    ...      0.00141627 Eh       0.89 kcal/mol
Thermal translational correction ...      0.00141627 Eh       0.89 kcal/mol
-----------------------------------------------------------------------
Total thermal energy                   -475.34110008 Eh

Summary of corrections to the electronic energy:
(perhaps to be used in another calculation)
Total thermal correction                  0.00732806 Eh       4.60 kcal/mol
Non-thermal (ZPE) correction              0.13119273 Eh      82.32 kcal/mol
-----------------------------------------------------------------------
Total correction                          0.13852078 Eh      86.92 kcal/mol

--------
ENTHALPY
--------

The enthalpy is H = U + kB*T
                kB is Boltzmann's constant
Total free energy                 ...   -475.34110008 Eh
Thermal Enthalpy correction       ...      0.00094421 Eh       0.59 kcal/mol
-----------------------------------------------------------------------
Total Enthalpy                    ...   -475.34015587 Eh

Note: Only C1 symmetry has been detected, increase convergence thresholds
      if your molecule has a higher symmetry. Symmetry factor of 1.0 is
      used for the rotational entropy correction.

Note: Rotational entropy computed according to Herzberg
Infrared and Raman Spectra, Chapter V,1, Van Nostrand Reinhold, 1945
Point Group:  C1, Symmetry Number:   1
Rotational constants in cm-1:     0.074924     0.042117     0.027095

Vibrational entropy computed according to the QRRHO of S. Grimme
Chem.Eur.J. 2012 18 9955

-------
ENTROPY
-------

The entropy contributions are T*S = T*(S(el)+S(vib)+S(rot)+S(trans))
     S(el)   - electronic entropy
     S(vib)  - vibrational entropy
     S(rot)  - rotational entropy
     S(trans)- translational entropy
The entropies will be listed as mutliplied by the temperature to get
units of energy

Electronic entropy                ...      0.00000000 Eh      0.00 kcal/mol
Vibrational entropy               ...      0.00700162 Eh      4.39 kcal/mol
Rotational entropy                ...      0.01393287 Eh      8.74 kcal/mol
Translational entropy             ...      0.01931853 Eh     12.12 kcal/mol
-----------------------------------------------------------------------
Final entropy term                ...      0.04025302 Eh     25.26 kcal/mol

In case the symmetry of your molecule has not been determined correctly
or in case you have a reason to use a different symmetry number we print
out the resulting rotational entropy values for sn=1,12 :
 --------------------------------------------------------
|  sn= 1 | S(rot)=       0.01393287 Eh      8.74 kcal/mol|
|  sn= 2 | S(rot)=       0.01327842 Eh      8.33 kcal/mol|
|  sn= 3 | S(rot)=       0.01289559 Eh      8.09 kcal/mol|
|  sn= 4 | S(rot)=       0.01262396 Eh      7.92 kcal/mol|
|  sn= 5 | S(rot)=       0.01241327 Eh      7.79 kcal/mol|
|  sn= 6 | S(rot)=       0.01224113 Eh      7.68 kcal/mol|
|  sn= 7 | S(rot)=       0.01209558 Eh      7.59 kcal/mol|
|  sn= 8 | S(rot)=       0.01196951 Eh      7.51 kcal/mol|
|  sn= 9 | S(rot)=       0.01185830 Eh      7.44 kcal/mol|
|  sn=10 | S(rot)=       0.01175882 Eh      7.38 kcal/mol|
|  sn=11 | S(rot)=       0.01166883 Eh      7.32 kcal/mol|
|  sn=12 | S(rot)=       0.01158667 Eh      7.27 kcal/mol|
 --------------------------------------------------------

-------------------
GIBBS FREE ENERGY
-------------------

                             ****ORCA TERMINATED NORMALLY****
TOTAL RUN TIME: 0 days 11 hours 32 minutes 23 seconds 727 msec
