                         Program Version 5.0.4 -  RELEASE  -
|  1> !B3LYP DEF2-QZVPP D4
|  2>
|  3> * xyz 0 1
|  4>   C   -1.05354596271083      1.42135243576665     -0.73549220185663
|  5>   C   -1.76717691585433      0.81968690597605      0.22444324622836
|  6>   C   -0.91604797271676     -0.21504620254596      0.92339098529051
|  7>   C   -3.18658916550982      1.06760146729181      0.62043996179919
|  8>   H   -3.65177058285626      1.84890976029203      0.00161745831760
|  9>   H   -3.25259686050292      1.37975261146372      1.67787971117939
| 10>   H   -3.79133874736600      0.14808169577577      0.52701048897989
| 11>   C   0.35705795446457      0.89749440001034     -0.79501799653405
| 12>   C   1.41588701773226      2.02006837281249     -0.63884945754235
| 13>   C   2.80881703463114      1.41251132710473     -0.63583732910559
| 14>   H   1.20967085252781      2.57392305919014      0.29049098629325
| 15>   H   1.34740263144453      2.70902449090648     -1.49554455642121
| 16>   C   3.37622781232091      1.19049215945855      0.75754145591531
| 17>   N   0.41123761481178     -0.07210345422347      0.31381604773552
| 18>   H   0.56307393880421      0.40954505459904     -1.76931562713006
| 19>   H   -1.34153580290440     -1.23063666814028      0.78694765203342
| 20>   H   -0.89469173408622     -0.03961126720342      2.01833030977159
| 21>   H   0.80199521648994     -0.96262165511348      0.02364954504097
| 22>   O   3.36130687691708      1.06897825383177     -1.65256833709520
| 23>   Cl  4.92950915132907      0.31373216343513      0.77168111918747
| 24>   H   2.62051255229742      0.61607693324621      1.31840686987001
| 25>   H   3.50773757250952      2.16097047317234      1.26235402519175
| 26>   H   -1.41589248177270      2.21265768289335     -1.39571435714913
| 27> **                         ****END OF INPUT****

CARTESIAN COORDINATES (ANGSTROEM)
---------------------------------
  C     -1.053546    1.421352   -0.735492
  C     -1.767177    0.819687    0.224443
  C     -0.916048   -0.215046    0.923391
  C     -3.186589    1.067601    0.620440
  H     -3.651771    1.848910    0.001617
  H     -3.252597    1.379753    1.677880
  H     -3.791339    0.148082    0.527010
  C      0.357058    0.897494   -0.795018
  C      1.415887    2.020068   -0.638849
  C      2.808817    1.412511   -0.635837
  H      1.209671    2.573923    0.290491
  H      1.347403    2.709024   -1.495545
  C      3.376228    1.190492    0.757541
  N      0.411238   -0.072103    0.313816
  H      0.563074    0.409545   -1.769316
  H     -1.341536   -1.230637    0.786948
  H     -0.894692   -0.039611    2.018330
  H      0.801995   -0.962622    0.023650
  O      3.361307    1.068978   -1.652568
  Cl     4.929509    0.313732    0.771681
  H      2.620513    0.616077    1.318407
  H      3.507738    2.160970    1.262354
  H     -1.415892    2.212658   -1.395714

 Total Charge           Charge          ....    0
 Multiplicity           Mult            ....    1
 Number of Electrons    NEL             ....   92
 Basis Dimension        Dim             .... 1000

ORBITAL ENERGIES
----------------

  NO   OCC          E(Eh)            E(eV)
   0   2.0000    -101.511992     -2762.2817
   1   2.0000     -19.121987      -520.3357
   2   2.0000     -14.314527      -389.5181
   3   2.0000     -10.270604      -279.4773
   4   2.0000     -10.234698      -278.5003
   5   2.0000     -10.224697      -278.2282
   6   2.0000     -10.212493      -277.8961
   7   2.0000     -10.193699      -277.3846
   8   2.0000     -10.188007      -277.2298
   9   2.0000     -10.185389      -277.1585
  10   2.0000     -10.178809      -276.9795
  11   2.0000      -9.442704      -256.9490
  12   2.0000      -7.205123      -196.0614
  13   2.0000      -7.196236      -195.8195
  14   2.0000      -7.196121      -195.8164
  15   2.0000      -1.052648       -28.6440
  16   2.0000      -0.936096       -25.4725
  17   2.0000      -0.851466       -23.1696
  18   2.0000      -0.801230       -21.8026
  19   2.0000      -0.788441       -21.4546
  20   2.0000      -0.729504       -19.8508
  21   2.0000      -0.697150       -18.9704
  22   2.0000      -0.676220       -18.4009
  23   2.0000      -0.594035       -16.1645
  24   2.0000      -0.552146       -15.0247
  25   2.0000      -0.533957       -14.5297
  26   2.0000      -0.522257       -14.2113
  27   2.0000      -0.488213       -13.2849
  28   2.0000      -0.476585       -12.9685
  29   2.0000      -0.459775       -12.5111
  30   2.0000      -0.455965       -12.4074
  31   2.0000      -0.436136       -11.8679
  32   2.0000      -0.432684       -11.7739
  33   2.0000      -0.418572       -11.3899
  34   2.0000      -0.405899       -11.0451
  35   2.0000      -0.401658       -10.9297
  36   2.0000      -0.400788       -10.9060
  37   2.0000      -0.377205       -10.2643
  38   2.0000      -0.371400       -10.1063
  39   2.0000      -0.362185        -9.8556
  40   2.0000      -0.352033        -9.5793
  41   2.0000      -0.298551        -8.1240
  42   2.0000      -0.295800        -8.0491
  43   2.0000      -0.269141        -7.3237
  44   2.0000      -0.258288        -7.0284
  45   2.0000      -0.234041        -6.3686
  46   0.0000      -0.030963        -0.8425
  47   0.0000      -0.002534        -0.0690
  48   0.0000       0.003755         0.1022
  49   0.0000       0.018358         0.4996
  50   0.0000       0.019786         0.5384

MULLIKEN ATOMIC CHARGES
-----------------------
   0 C :   -0.186104
   1 C :    0.050343
   2 C :    0.161953
   3 C :   -0.131929
   4 H :    0.055162
   5 H :    0.047446
   6 H :    0.044246
   7 C :    0.269452
   8 C :    0.008075
   9 C :    0.090618
  10 H :    0.042237
  11 H :    0.053975
  12 C :    0.081238
  13 N :   -0.504666
  14 H :    0.042643
  15 H :    0.011316
  16 H :    0.034720
  17 H :    0.147569
  18 O :   -0.325822
  19 Cl:   -0.187959
  20 H :    0.083799
  21 H :    0.068533
  22 H :    0.043156
Sum of atomic charges:   -0.0000000

LOEWDIN ATOMIC CHARGES
----------------------
   0 C :    0.089423
   1 C :   -0.109913
   2 C :    0.002331
   3 C :    0.223297
   4 H :   -0.045050
   5 H :   -0.044622
   6 H :   -0.045005
   7 C :   -0.154822
   8 C :    0.105323
   9 C :   -0.514708
  10 H :   -0.035713
  11 H :   -0.032271
  12 C :   -0.231360
  13 N :    0.527477
  14 H :   -0.033524
  15 H :   -0.046391
  16 H :   -0.047743
  17 H :   -0.195754
  18 O :    0.371013
  19 Cl:    0.407532
  20 H :   -0.066322
  21 H :   -0.062319
  22 H :   -0.060878

  Mayer bond orders larger than 0.100000
B(  0-C ,  1-C ) :   1.6741 B(  0-C ,  7-C ) :   0.9501 B(  0-C , 22-H ) :   0.9697
B(  1-C ,  2-C ) :   0.9402 B(  1-C ,  3-C ) :   0.9521 B(  2-C , 13-N ) :   0.9552
B(  2-C , 15-H ) :   0.9352 B(  2-C , 16-H ) :   0.9496 B(  3-C ,  4-H ) :   0.9712
B(  3-C ,  5-H ) :   0.9582 B(  3-C ,  6-H ) :   0.9585 B(  7-C ,  8-C ) :   0.8794
B(  7-C , 13-N ) :   0.8595 B(  7-C , 14-H ) :   0.9559 B(  8-C ,  9-C ) :   0.9159
B(  8-C , 10-H ) :   0.9392 B(  8-C , 11-H ) :   0.9372 B(  9-C , 12-C ) :   0.9052
B(  9-C , 18-O ) :   2.0926 B( 12-C , 19-Cl) :   1.0397 B( 12-C , 20-H ) :   0.9133
B( 12-C , 21-H ) :   0.9152 B( 13-N , 17-H ) :   0.9809

Dispersion correction           -0.037546337
FINAL SINGLE POINT ENERGY      -902.165990491616

DIPOLE MOMENT
-------------
                                X             Y             Z
Electronic contribution:     22.54129      -2.23177      -1.06704
Nuclear contribution   :    -24.46675       2.52936       1.68763
                        -----------------------------------------
Total Dipole Moment    :     -1.92546       0.29759       0.62059
                        -----------------------------------------
Magnitude (a.u.)       :      2.04477
Magnitude (Debye)      :      5.19740

Rotational constants in cm-1:     0.078975     0.013377     0.012208
Rotational constants in MHz :  2367.608052   401.025928   365.983271

                             ****ORCA TERMINATED NORMALLY****
TOTAL RUN TIME: 0 days 0 hours 38 minutes 58 seconds 934 msec
