                         Program Version 5.0.4 -  RELEASE  -
|  1> !B3LYP DEF2-SVP OPT D4
|  2>
|  3> * xyz 1 1
|  4>    H        0.42951       -2.60041        0.79729
|  5>    C        0.43026       -1.55035        0.51494
|  6>    C       -0.77394       -0.89619        0.27171
|  7>    H       -1.71504       -1.43348        0.36313
|  8>    C       -0.76933        0.44815       -0.08829
|  9>    H       -1.70826        0.96246       -0.27863
| 10>    C        0.43687        1.13680       -0.20510
| 11>    H        0.41383        2.18678       -0.48732
| 12>    C        1.65766        0.49213        0.03497
| 13>    H        1.25959        3.83828       -2.49714
| 14>    C        1.63774       -0.86336        0.39817
| 15>    H        2.55928       -1.40459        0.59685
| 16>    N        2.83886        1.19816       -0.08705
| 17>    O        2.92015        2.44351       -0.40859
| 18>    O        4.05532        0.49698        0.11224
| 19> **                         ****END OF INPUT****
 Total Charge           Charge          ....    1
 Multiplicity           Mult            ....    1
 Number of Electrons    NEL             ....   64
 Basis Dimension        Dim             ....  156

ORBITAL ENERGIES
----------------

  NO   OCC          E(Eh)            E(eV)
   0   2.0000     -19.391460      -527.6685
   1   2.0000     -19.370595      -527.1007
   2   2.0000     -14.740572      -401.1114
   3   2.0000     -10.443690      -284.1873
   4   2.0000     -10.409182      -283.2482
   5   2.0000     -10.408542      -283.2308
   6   2.0000     -10.395504      -282.8760
   7   2.0000     -10.391965      -282.7797
   8   2.0000     -10.388796      -282.6935
   9   2.0000      -1.343739       -36.5650
  10   2.0000      -1.162386       -31.6301
  11   2.0000      -1.075435       -29.2641
  12   2.0000      -1.004929       -27.3455
  13   2.0000      -0.946097       -25.7446
  14   2.0000      -0.894282       -24.3346
  15   2.0000      -0.807500       -21.9732
  16   2.0000      -0.777710       -21.1626
  17   2.0000      -0.739338       -20.1184
  18   2.0000      -0.695698       -18.9309
  19   2.0000      -0.691525       -18.8173
  20   2.0000      -0.684715       -18.6320
  21   2.0000      -0.646542       -17.5933
  22   2.0000      -0.636455       -17.3188
  23   2.0000      -0.621777       -16.9194
  24   2.0000      -0.568695       -15.4750
  25   2.0000      -0.561446       -15.2777
  26   2.0000      -0.545600       -14.8465
  27   2.0000      -0.509272       -13.8580
  28   2.0000      -0.490570       -13.3491
  29   2.0000      -0.472106       -12.8466
  30   2.0000      -0.464242       -12.6327
  31   2.0000      -0.454245       -12.3606
  32   0.0000      -0.433306       -11.7909
  33   0.0000      -0.316507        -8.6126
  34   0.0000      -0.206471        -5.6184
  35   0.0000      -0.184114        -5.0100
  36   0.0000      -0.108611        -2.9555

MULLIKEN ATOMIC CHARGES
-----------------------
   0 H :    0.062782
   1 C :    0.043070
   2 C :    0.087283
   3 H :    0.062319
   4 C :    0.050247
   5 H :    0.056948
   6 C :    0.022914
   7 H :    0.008460
   8 C :    0.195252
   9 H :    0.328967
  10 C :    0.042066
  11 H :    0.064569
  12 N :    0.233105
  13 O :   -0.133225
  14 O :   -0.124757
Sum of atomic charges:    1.0000000

LOEWDIN ATOMIC CHARGES
----------------------
   0 H :    0.063914
   1 C :    0.040745
   2 C :    0.067152
   3 H :    0.062670
   4 C :    0.049301
   5 H :    0.061088
   6 C :    0.053266
   7 H :    0.040335
   8 C :   -0.030145
   9 H :    0.325631
  10 C :    0.087447
  11 H :    0.065879
  12 N :    0.340212
  13 O :   -0.101185
  14 O :   -0.126309

  Mayer bond orders larger than 0.100000
B(  0-H ,  1-C ) :   0.9847 B(  1-C ,  2-C ) :   1.3632 B(  1-C , 10-C ) :   1.3334
B(  2-C ,  3-H ) :   0.9888 B(  2-C ,  4-C ) :   1.3262 B(  4-C ,  5-H ) :   0.9848
B(  4-C ,  6-C ) :   1.3339 B(  4-C ,  9-H ) :   0.1045 B(  6-C ,  7-H ) :   0.9851
B(  6-C ,  8-C ) :   1.3071 B(  8-C , 10-C ) :   1.2632 B(  8-C , 12-N ) :   0.9859
B(  9-H , 10-C ) :   0.1093 B(  9-H , 13-O ) :   0.2193 B(  9-H , 14-O ) :   0.3107
B( 10-C , 11-H ) :   0.9888 B( 12-N , 13-O ) :   1.4521 B( 12-N , 14-O ) :   1.3218
B( 13-O , 14-O ) :   0.2409

Dispersion correction           -0.021980761
FINAL SINGLE POINT ENERGY      -436.278320756470
Dispersion correction            ... Starting D4
Dispersion correction           -0.022073822
FINAL SINGLE POINT ENERGY      -436.309735909343
Dispersion correction            ... Starting D4
Dispersion correction           -0.022118469
FINAL SINGLE POINT ENERGY      -436.315038870739
Dispersion correction            ... Starting D4
FINAL SINGLE POINT ENERGY      -436.321909745011
FINAL SINGLE POINT ENERGY      -436.325874670090
FINAL SINGLE POINT ENERGY      -436.330103832668
FINAL SINGLE POINT ENERGY      -436.334199149459
FINAL SINGLE POINT ENERGY      -436.338337573722
FINAL SINGLE POINT ENERGY      -436.338524724520
FINAL SINGLE POINT ENERGY      -436.338701152836
FINAL SINGLE POINT ENERGY      -436.393649816636
FINAL SINGLE POINT ENERGY      -436.393690803596
FINAL SINGLE POINT ENERGY      -436.393867989789
FINAL SINGLE POINT ENERGY      -436.393956824582
FINAL SINGLE POINT ENERGY      -436.394043736615
FINAL SINGLE POINT ENERGY      -436.394121469466
FINAL SINGLE POINT ENERGY      -436.394227915645
Dispersion correction           -0.022402888
FINAL SINGLE POINT ENERGY      -436.394307597273
Dispersion correction            ... Starting D4
Dispersion correction           -0.022410994
FINAL SINGLE POINT ENERGY      -436.394406396927
Dispersion correction            ... Starting D4

CARTESIAN COORDINATES (ANGSTROEM)
---------------------------------
  H      0.557095   -2.608410    0.649217
  C      0.486023   -1.543637    0.418801
  C     -0.767139   -0.925908    0.273178
  H     -1.677766   -1.521408    0.374711
  C     -0.867946    0.449662    0.010220
  H     -1.844630    0.932062   -0.060278
  C      0.283091    1.211574   -0.134727
  H      0.227785    2.288155   -0.245938
  C      1.530054    0.571359   -0.015350
  H      2.091680    3.005844   -2.249193
  C      1.650896   -0.799703    0.282890
  H      2.634170   -1.263844    0.373005
  N      2.744772    1.306675   -0.155814
  O      2.862901    2.417581   -0.834771
  O      3.761515    0.934867    0.351231

Dispersion correction           -0.022402813
FINAL SINGLE POINT ENERGY      -436.394491483686
Dispersion correction            ... Starting D4

DIPOLE MOMENT
-------------
                                X             Y             Z
Electronic contribution:      4.50381       3.64443      -1.16231
Nuclear contribution   :     -5.90508      -2.04069      -0.94388
                        -----------------------------------------
Total Dipole Moment    :     -1.40127       1.60374      -2.10619
                        -----------------------------------------
Magnitude (a.u.)       :      2.99526
Magnitude (Debye)      :      7.61334

Rotational constants in cm-1:     0.126934     0.040807     0.031671
Rotational constants in MHz :  3805.380920  1223.371148   949.472313

                             ****ORCA TERMINATED NORMALLY****
TOTAL RUN TIME: 0 days 1 hours 52 minutes 46 seconds 295 msec
