                         Program Version 5.0.4 -  RELEASE  -
|  1> !B3LYP DEF2-SVP OPT FREQ D4 SOSCF
|  2>
|  3> * xyz 0 1
|  4>    C       -7.64127        1.06888       -0.00000
|  5>    C       -8.79100        0.25778       -0.00000
|  6>    C       -8.67014       -1.13563       -0.00000
|  7>    C       -7.40535       -1.72956       -0.00000
|  8>    C       -6.25865       -0.93114        0.00000
|  9>    C       -6.37440        0.46265       -0.00000
| 10>    H       -9.77998        0.69886       -0.00000
| 11>    H       -9.55767       -1.75519       -0.00000
| 12>    H       -7.31389       -2.80804        0.00000
| 13>    H       -5.27940       -1.39224        0.00000
| 14>    H       -5.47561        1.06730       -0.00000
| 15>    C       -7.74415        2.54308       -0.00000
| 16>    O       -8.83107        3.09974       -0.00000
| 17>    H       -6.84357        3.14931       -0.00000
| 18> **                         ****END OF INPUT****
 Total Charge           Charge          ....    0
 Multiplicity           Mult            ....    1
 Number of Electrons    NEL             ....   56
Dispersion correction           -0.022371038
FINAL SINGLE POINT ENERGY      -345.137953783411
Dispersion correction            ... Starting D4
Dispersion correction           -0.022349287
FINAL SINGLE POINT ENERGY      -345.140054557535
Dispersion correction            ... Starting D4
Dispersion correction           -0.022351523
FINAL SINGLE POINT ENERGY      -345.140575619198
Dispersion correction            ... Starting D4
FINAL SINGLE POINT ENERGY      -345.140656296767
Dispersion correction           -0.022356175
FINAL SINGLE POINT ENERGY      -345.140668941666
Dispersion correction            ... Starting D4
Dispersion correction           -0.022356998
FINAL SINGLE POINT ENERGY      -345.140670992686
Dispersion correction            ... Starting D4
                    ***********************HURRAY********************

CARTESIAN COORDINATES (ANGSTROEM)
---------------------------------
  C     -7.649551    1.056675    0.000145
  C     -8.799164    0.248728    0.000089
  C     -8.673217   -1.138117   -0.000009
  C     -7.400300   -1.725455   -0.000057
  C     -6.252839   -0.926034   -0.000004
  C     -6.378437    0.464556    0.000091
  H     -9.776611    0.736463    0.000134
  H     -9.565381   -1.769449   -0.000048
  H     -7.303988   -2.814466   -0.000134
  H     -5.262794   -1.388575   -0.000041
  H     -5.487781    1.100554    0.000134
  C     -7.780870    2.534111    0.000280
  O     -8.832326    3.131991   -0.000282
  H     -6.802892    3.084819   -0.000298

 Multiplicity           Mult            ....    1
 Number of Electrons    NEL             ....   56
 Basis Dimension        Dim             ....  142

ORBITAL ENERGIES
----------------

  NO   OCC          E(Eh)            E(eV)
   0   2.0000     -19.129616      -520.5433
   1   2.0000     -10.272815      -279.5375
   2   2.0000     -10.209616      -277.8178
   3   2.0000     -10.208700      -277.7928
   4   2.0000     -10.205331      -277.7012
   5   2.0000     -10.204074      -277.6670
   6   2.0000     -10.203649      -277.6554
   7   2.0000     -10.202373      -277.6207
   8   2.0000      -1.032391       -28.0928
   9   2.0000      -0.862931       -23.4816
  10   2.0000      -0.765668       -20.8349
  11   2.0000      -0.752623       -20.4799
  12   2.0000      -0.647239       -17.6123
  13   2.0000      -0.615269       -16.7423
  14   2.0000      -0.570051       -15.5119
  15   2.0000      -0.523281       -14.2392
  16   2.0000      -0.484349       -13.1798
  17   2.0000      -0.462448       -12.5838
  18   2.0000      -0.443108       -12.0576
  19   2.0000      -0.435037       -11.8380
  20   2.0000      -0.427722       -11.6389
  21   2.0000      -0.410830       -11.1792
  22   2.0000      -0.371781       -10.1167
  23   2.0000      -0.369058       -10.0426
  24   2.0000      -0.357566        -9.7299
  25   2.0000      -0.271700        -7.3933
  26   2.0000      -0.268630        -7.3098
  27   2.0000      -0.258235        -7.0269
  28   0.0000      -0.067357        -1.8329
  29   0.0000      -0.022083        -0.6009
  30   0.0000       0.033209         0.9037
  31   0.0000       0.057617         1.5678
  32   0.0000       0.079413         2.1609

MULLIKEN ATOMIC CHARGES
-----------------------
   0 C :   -0.017578
   1 C :    0.019223
   2 C :    0.024847
   3 C :    0.031262
   4 C :    0.022932
   5 C :    0.007205
   6 H :   -0.002161
   7 H :   -0.006843
   8 H :   -0.005266
   9 H :   -0.009512
  10 H :   -0.015404
  11 C :    0.168680
  12 O :   -0.190257
  13 H :   -0.027127
Sum of atomic charges:   -0.0000000

LOEWDIN ATOMIC CHARGES
----------------------
   0 C :   -0.083698
   1 C :    0.016397
   2 C :   -0.020704
   3 C :   -0.003858
   4 C :   -0.023931
   5 C :   -0.002288
   6 H :    0.034826
   7 H :    0.031068
   8 H :    0.030949
   9 H :    0.030321
  10 H :    0.028712
  11 C :    0.109114
  12 O :   -0.137486
  13 H :   -0.009424

  Mayer bond orders larger than 0.100000
B(  0-C ,  1-C ) :   1.3535 B(  0-C ,  5-C ) :   1.3431 B(  0-C , 11-C ) :   0.9787
B(  1-C ,  2-C ) :   1.3884 B(  1-C ,  6-H ) :   0.9863 B(  2-C ,  3-C ) :   1.3623
B(  2-C ,  7-H ) :   0.9874 B(  3-C ,  4-C ) :   1.3892 B(  3-C ,  8-H ) :   0.9845
B(  4-C ,  5-C ) :   1.3818 B(  4-C ,  9-H ) :   0.9848 B(  5-C , 10-H ) :   0.9840
B( 11-C , 12-O ) :   2.1451 B( 11-C , 13-H ) :   0.9409

Dispersion correction           -0.022357278
FINAL SINGLE POINT ENERGY      -345.140671177436

DIPOLE MOMENT
-------------
                                X             Y             Z
Electronic contribution:     -1.37372       2.86951       0.00058
Nuclear contribution   :      2.09952      -3.87654      -0.00033
                        -----------------------------------------
Total Dipole Moment    :      0.72580      -1.00703       0.00025
                        -----------------------------------------
Magnitude (a.u.)       :      1.24133
Magnitude (Debye)      :      3.15521

Dispersion correction in the Hessian             ... Starting D4

VIBRATIONAL FREQUENCIES
-----------------------

Scaling factor for frequencies =  1.000000000  (already applied!)

   0:         0.00 cm**-1
   1:         0.00 cm**-1
   2:         0.00 cm**-1
   3:         0.00 cm**-1
   4:         0.00 cm**-1
   5:         0.00 cm**-1
   6:       128.66 cm**-1
   7:       222.90 cm**-1
   8:       244.20 cm**-1
   9:       423.09 cm**-1
  10:       444.18 cm**-1
  11:       475.26 cm**-1
  12:       629.09 cm**-1
  13:       664.18 cm**-1
  14:       716.38 cm**-1
  15:       770.83 cm**-1
  16:       842.34 cm**-1
  17:       872.60 cm**-1
  18:       953.29 cm**-1
  19:      1015.26 cm**-1
  20:      1015.38 cm**-1
  21:      1031.57 cm**-1
  22:      1043.00 cm**-1
  23:      1045.81 cm**-1
  24:      1095.39 cm**-1
  25:      1170.33 cm**-1
  26:      1174.89 cm**-1
  27:      1230.83 cm**-1
  28:      1324.48 cm**-1
  29:      1377.30 cm**-1
  30:      1417.59 cm**-1
  31:      1484.81 cm**-1
  32:      1521.47 cm**-1
  33:      1641.51 cm**-1
  34:      1659.36 cm**-1
  35:      1819.44 cm**-1
  36:      2877.31 cm**-1
  37:      3166.85 cm**-1
  38:      3177.02 cm**-1
  39:      3187.92 cm**-1
  40:      3197.19 cm**-1
  41:      3204.17 cm**-1

IR SPECTRUM
-----------

 Mode   freq       eps      Int      T**2         TX        TY        TZ
       cm**-1   L/(mol*cm) km/mol    a.u.
----------------------------------------------------------------------------
  6:    128.66   0.000637    3.22  0.001545  ( 0.000018  0.000027  0.039302)
  7:    222.90   0.001450    7.33  0.002030  ( 0.016545  0.041912 -0.000034)
  8:    244.20   0.001262    6.38  0.001613  (-0.000052 -0.000047 -0.040159)
  9:    423.09   0.000011    0.05  0.000008  ( 0.000008 -0.000020 -0.002818)
 10:    444.18   0.000020    0.10  0.000014  (-0.002333 -0.002922 -0.000022)
 11:    475.26   0.001007    5.09  0.000661  ( 0.000017 -0.000012  0.025712)
 12:    629.09   0.000047    0.24  0.000024  (-0.002448 -0.004190 -0.000002)
 13:    664.18   0.004646   23.48  0.002183  ( 0.005556  0.046388  0.000003)
 14:    716.38   0.005450   27.54  0.002374  ( 0.000012 -0.000021  0.048724)
 15:    770.83   0.005932   29.98  0.002401  (-0.000017 -0.000005  0.049005)
 16:    842.34   0.006148   31.07  0.002278  ( 0.007533  0.047127 -0.000004)
 17:    872.60   0.000003    0.01  0.000001  (-0.000003  0.000005 -0.001016)
 18:    953.29   0.000254    1.28  0.000083  ( 0.000018 -0.000018 -0.009111)
 19:   1015.26   0.000084    0.42  0.000026  ( 0.000470 -0.005051  0.000010)
 20:   1015.38   0.000007    0.04  0.000002  ( 0.000008  0.000029  0.001512)
 21:   1031.57   0.000002    0.01  0.000001  (-0.000030  0.000022 -0.000817)
 22:   1043.00   0.000485    2.45  0.000145  ( 0.001181 -0.011990 -0.000001)
 23:   1045.81   0.000005    0.03  0.000002  (-0.000031  0.000033 -0.001248)
 24:   1095.39   0.001153    5.83  0.000328  ( 0.017869  0.003012  0.000002)
 25:   1170.33   0.000719    3.63  0.000192  (-0.003646  0.013356 -0.000000)
 26:   1174.89   0.002351   11.88  0.000624  (-0.000953  0.024971 -0.000000)
 27:   1230.83   0.012370   62.51  0.003136  ( 0.003674 -0.055882  0.000003)
 28:   1324.48   0.003064   15.49  0.000722  (-0.007813 -0.025709  0.000001)
 29:   1377.30   0.001156    5.84  0.000262  ( 0.010919 -0.011945 -0.000000)
 30:   1417.59   0.001784    9.01  0.000393  ( 0.012814  0.015115  0.000006)
 31:   1484.81   0.002567   12.97  0.000540  (-0.016967 -0.015866  0.000004)
 32:   1521.47   0.000186    0.94  0.000038  ( 0.001005  0.006097 -0.000003)
 33:   1641.51   0.002152   10.88  0.000409  ( 0.007022 -0.018969  0.000003)
 34:   1659.36   0.005200   26.28  0.000978  (-0.007190  0.030434  0.000001)
 35:   1819.44   0.047163  238.34  0.008089  (-0.057865  0.068854  0.000002)
 36:   2877.31   0.025943  131.11  0.002814  ( 0.036528  0.038463  0.000001)
 37:   3166.85   0.000683    3.45  0.000067  ( 0.005656  0.005945  0.000000)
 38:   3177.02   0.000209    1.05  0.000020  (-0.000148  0.004524  0.000000)
 39:   3187.92   0.002178   11.00  0.000213  ( 0.013416  0.005759  0.000001)
 40:   3197.19   0.001892    9.56  0.000185  ( 0.008945 -0.010231 -0.000001)
 41:   3204.17   0.001168    5.90  0.000114  (-0.003611 -0.010034  0.000000)

--------------------------
THERMOCHEMISTRY AT 298.15K
--------------------------

Temperature         ... 298.15 K
Pressure            ... 1.00 atm
Total Mass          ... 106.12 AMU

Throughout the following assumptions are being made:
  (1) The electronic state is orbitally nondegenerate
  (2) There are no thermally accessible electronically excited states
  (3) Hindered rotations indicated by low frequency modes are not
      treated as such but are treated as vibrations and this may
      cause some error
  (4) All equations used are the standard statistical mechanics
      equations for an ideal gas
  (5) All vibrations are strictly harmonic

freq.     128.66  E(vib)   ...       0.43
freq.     222.90  E(vib)   ...       0.33
freq.     244.20  E(vib)   ...       0.31
freq.     423.09  E(vib)   ...       0.18
freq.     444.18  E(vib)   ...       0.17
freq.     475.26  E(vib)   ...       0.15
freq.     629.09  E(vib)   ...       0.09
freq.     664.18  E(vib)   ...       0.08
freq.     716.38  E(vib)   ...       0.07
freq.     770.83  E(vib)   ...       0.05
freq.     842.34  E(vib)   ...       0.04
freq.     872.60  E(vib)   ...       0.04
freq.     953.29  E(vib)   ...       0.03
freq.    1015.26  E(vib)   ...       0.02
freq.    1015.38  E(vib)   ...       0.02
freq.    1031.57  E(vib)   ...       0.02
freq.    1043.00  E(vib)   ...       0.02
freq.    1045.81  E(vib)   ...       0.02
freq.    1095.39  E(vib)   ...       0.02
freq.    1170.33  E(vib)   ...       0.01
freq.    1174.89  E(vib)   ...       0.01
freq.    1230.83  E(vib)   ...       0.01
freq.    1324.48  E(vib)   ...       0.01
freq.    1377.30  E(vib)   ...       0.01
freq.    1417.59  E(vib)   ...       0.00
freq.    1484.81  E(vib)   ...       0.00
freq.    1521.47  E(vib)   ...       0.00
freq.    1641.51  E(vib)   ...       0.00
freq.    1659.36  E(vib)   ...       0.00
freq.    1819.44  E(vib)   ...       0.00
freq.    2877.31  E(vib)   ...       0.00
freq.    3166.85  E(vib)   ...       0.00
freq.    3177.02  E(vib)   ...       0.00
freq.    3187.92  E(vib)   ...       0.00
freq.    3197.19  E(vib)   ...       0.00
freq.    3204.17  E(vib)   ...       0.00

------------
INNER ENERGY
------------

The inner energy is: U= E(el) + E(ZPE) + E(vib) + E(rot) + E(trans)
    E(el)   - is the total energy from the electronic structure calculation
              = E(kin-el) + E(nuc-el) + E(el-el) + E(nuc-nuc)
    E(ZPE)  - the the zero temperature vibrational energy from the frequency calculation
    E(vib)  - the the finite temperature correction to E(ZPE) due to population
              of excited vibrational states
    E(rot)  - is the rotational thermal energy
    E(trans)- is the translational thermal energy

Summary of contributions to the inner energy U:
Electronic energy                ...   -345.14067118 Eh
Zero point energy                ...      0.10995771 Eh      69.00 kcal/mol
Thermal vibrational correction   ...      0.00342140 Eh       2.15 kcal/mol
Thermal rotational correction    ...      0.00141627 Eh       0.89 kcal/mol
Thermal translational correction ...      0.00141627 Eh       0.89 kcal/mol
-----------------------------------------------------------------------
Total thermal energy                   -345.02445953 Eh

Summary of corrections to the electronic energy:
(perhaps to be used in another calculation)
Total thermal correction                  0.00625394 Eh       3.92 kcal/mol
Non-thermal (ZPE) correction              0.10995771 Eh      69.00 kcal/mol
-----------------------------------------------------------------------
Total correction                          0.11621165 Eh      72.92 kcal/mol

--------
ENTHALPY
--------

The enthalpy is H = U + kB*T
                kB is Boltzmann's constant
Total free energy                 ...   -345.02445953 Eh
Thermal Enthalpy correction       ...      0.00094421 Eh       0.59 kcal/mol
-----------------------------------------------------------------------
Total Enthalpy                    ...   -345.02351532 Eh

Note: Only C1 symmetry has been detected, increase convergence thresholds
      if your molecule has a higher symmetry. Symmetry factor of 1.0 is
      used for the rotational entropy correction.

Note: Rotational entropy computed according to Herzberg
Infrared and Raman Spectra, Chapter V,1, Van Nostrand Reinhold, 1945
Point Group:  C1, Symmetry Number:   1
Rotational constants in cm-1:     0.173808     0.051962     0.040003

Vibrational entropy computed according to the QRRHO of S. Grimme
Chem.Eur.J. 2012 18 9955

-------
ENTROPY
-------

The entropy contributions are T*S = T*(S(el)+S(vib)+S(rot)+S(trans))
     S(el)   - electronic entropy
     S(vib)  - vibrational entropy
     S(rot)  - rotational entropy
     S(trans)- translational entropy
The entropies will be listed as multiplied by the temperature to get
units of energy

Electronic entropy                ...      0.00000000 Eh      0.00 kcal/mol
Vibrational entropy               ...      0.00543355 Eh      3.41 kcal/mol
Rotational entropy                ...      0.01325252 Eh      8.32 kcal/mol
Translational entropy             ...      0.01895542 Eh     11.89 kcal/mol
-----------------------------------------------------------------------
Final entropy term                ...      0.03764150 Eh     23.62 kcal/mol

In case the symmetry of your molecule has not been determined correctly
or in case you have a reason to use a different symmetry number we print
out the resulting rotational entropy values for sn=1,12 :
 --------------------------------------------------------
|  sn= 1 | S(rot)=       0.01325252 Eh      8.32 kcal/mol|
|  sn= 2 | S(rot)=       0.01259807 Eh      7.91 kcal/mol|
|  sn= 3 | S(rot)=       0.01221524 Eh      7.67 kcal/mol|
|  sn= 4 | S(rot)=       0.01194361 Eh      7.49 kcal/mol|
|  sn= 5 | S(rot)=       0.01173292 Eh      7.36 kcal/mol|
|  sn= 6 | S(rot)=       0.01156078 Eh      7.25 kcal/mol|
|  sn= 7 | S(rot)=       0.01141523 Eh      7.16 kcal/mol|
|  sn= 8 | S(rot)=       0.01128916 Eh      7.08 kcal/mol|
|  sn= 9 | S(rot)=       0.01117795 Eh      7.01 kcal/mol|
|  sn=10 | S(rot)=       0.01107847 Eh      6.95 kcal/mol|
|  sn=11 | S(rot)=       0.01098848 Eh      6.90 kcal/mol|
|  sn=12 | S(rot)=       0.01090632 Eh      6.84 kcal/mol|
 --------------------------------------------------------

-------------------
GIBBS FREE ENERGY
-------------------

The Gibbs free energy is G = H - T*S

Total enthalpy                    ...   -345.02351532 Eh
Total entropy correction          ...     -0.03764150 Eh    -23.62 kcal/mol
-----------------------------------------------------------------------
Final Gibbs free energy         ...   -345.06115681 Eh

For completeness - the Gibbs free energy minus the electronic energy

                             ****ORCA TERMINATED NORMALLY****
TOTAL RUN TIME: 0 days 0 hours 35 minutes 14 seconds 585 msec
