                         Program Version 5.0.4 -  RELEASE  -
|  1> !B3LYP DEF2-SVP OPT FREQ D4 SOSCF
|  2>
|  3> %geom
|  4> convergence tight
|  5> maxIter 1000
|  6> end
|  7>
|  8> %scf
|  9> convergence tight
| 10> maxIter 1000
| 11> end
| 12>
| 13> * xyz 1 1
| 14>    C       -5.87155        0.94275        0.12457
| 15>    C       -6.86610        1.47648       -0.73788
| 16>    C       -7.40772        0.71005       -1.75492
| 17>    C       -6.94328       -0.61295       -1.91660
| 18>    C       -5.95672       -1.18328       -1.09054
| 19>    C       -5.43110       -0.40643       -0.07757
| 20>    C       -5.27854        1.74155        1.22982
| 21>    H       -5.64982        1.23957        2.32547
| 22>    H       -5.60119        2.89925        1.12215
| 23>    H       -4.00716        1.57727        1.19419
| 24>    H       -7.20339        2.50495       -0.59151
| 25>    H       -8.17844        1.09704       -2.42341
| 26>    H       -5.62757       -2.20883       -1.26737
| 27>    H       -4.66438       -0.81975        0.58299
| 28>    N       -7.52024       -1.42732       -2.98343
| 29>    O       -6.77865       -2.20361       -3.55665
| 30>    O       -8.70676       -1.26858       -3.21528
| 31>    H      -13.98651       -5.61451       -8.57334
| 32> **                         ****END OF INPUT****
 Total Charge           Charge          ....    1
 Multiplicity           Mult            ....    1
 Number of Electrons    NEL             ....   72
Dispersion correction           -0.026547583
FINAL SINGLE POINT ENERGY      -475.568056979102
Dispersion correction            ... Starting D4
Dispersion correction           -0.026478277
FINAL SINGLE POINT ENERGY      -475.593318214581
Dispersion correction            ... Starting D4
Dispersion correction           -0.026500066
FINAL SINGLE POINT ENERGY      -475.597445106310
Dispersion correction            ... Starting D4
FINAL SINGLE POINT ENERGY      -475.599143209128
FINAL SINGLE POINT ENERGY      -475.599258107945
FINAL SINGLE POINT ENERGY      -475.599295259246
FINAL SINGLE POINT ENERGY      -475.599319881155
FINAL SINGLE POINT ENERGY      -475.599341400542
FINAL SINGLE POINT ENERGY      -475.599362357714
FINAL SINGLE POINT ENERGY      -475.599384069301
FINAL SINGLE POINT ENERGY      -475.600367555804
FINAL SINGLE POINT ENERGY      -475.600366849060
FINAL SINGLE POINT ENERGY      -475.600366292728
FINAL SINGLE POINT ENERGY      -475.600365997956
FINAL SINGLE POINT ENERGY      -475.600367123707
FINAL SINGLE POINT ENERGY      -475.600370105105
FINAL SINGLE POINT ENERGY      -475.600370106088
Dispersion correction           -0.026494884
FINAL SINGLE POINT ENERGY      -475.600370142881
Dispersion correction            ... Starting D4
Dispersion correction           -0.026494758
FINAL SINGLE POINT ENERGY      -475.600370414155
Dispersion correction            ... Starting D4
                    ***********************HURRAY********************

CARTESIAN COORDINATES (ANGSTROEM)
---------------------------------
  C     -5.472473    1.089284    0.189769
  C     -6.526944    1.698438   -0.553891
  C     -7.355094    0.942990   -1.360796
  C     -7.127129   -0.445136   -1.432742
  C     -6.097421   -1.089926   -0.719282
  C     -5.281010   -0.319962    0.086144
  C     -4.609172    1.906817    1.080123
  H     -5.084975    1.978861    2.081557
  H     -4.501259    2.940256    0.716750
  H     -3.619365    1.452736    1.233998
  H     -6.675242    2.778216   -0.481442
  H     -8.171379    1.387448   -1.931824
  H     -5.961890   -2.167514   -0.821250
  H     -4.473900   -0.791232    0.651401
  N     -7.994086   -1.251247   -2.288281
  O     -7.478340   -2.186927   -2.872422
  O     -9.165436   -0.925824   -2.352909
  H    -16.084006   -8.553627  -12.834215

 Multiplicity           Mult            ....    1
 Number of Electrons    NEL             ....   72
 Basis Dimension        Dim             ....  180

ORBITAL ENERGIES
----------------

  NO   OCC          E(Eh)            E(eV)
   0   2.0000     -19.310544      -525.4666
   1   2.0000     -19.310365      -525.4617
   2   2.0000     -14.699408      -399.9912
   3   2.0000     -10.412486      -283.3382
   4   2.0000     -10.386305      -282.6257
   5   2.0000     -10.365057      -282.0475
   6   2.0000     -10.364821      -282.0411
   7   2.0000     -10.359189      -281.8879
   8   2.0000     -10.358771      -281.8765
   9   2.0000     -10.330262      -281.1007
  10   2.0000      -1.368117       -37.2284
  11   2.0000      -1.194954       -32.5164
  12   2.0000      -1.032963       -28.1083
  13   2.0000      -0.960099       -26.1256
  14   2.0000      -0.912533       -24.8313
  15   2.0000      -0.879628       -23.9359
  16   2.0000      -0.794027       -21.6066
  17   2.0000      -0.775516       -21.1029
  18   2.0000      -0.727243       -19.7893
  19   2.0000      -0.692095       -18.8329
  20   2.0000      -0.682270       -18.5655
  21   2.0000      -0.650729       -17.7072
  22   2.0000      -0.626825       -17.0568
  23   2.0000      -0.623574       -16.9683
  24   2.0000      -0.597902       -16.2697
  25   2.0000      -0.590983       -16.0815
  26   2.0000      -0.568409       -15.4672
  27   2.0000      -0.534370       -14.5409
  28   2.0000      -0.528211       -14.3734
  29   2.0000      -0.520168       -14.1545
  30   2.0000      -0.505087       -13.7441
  31   2.0000      -0.452429       -12.3112
  32   2.0000      -0.448276       -12.1982
  33   2.0000      -0.439582       -11.9616
  34   2.0000      -0.424626       -11.5547
  35   2.0000      -0.395110       -10.7515
  36   0.0000      -0.388991       -10.5850
  37   0.0000      -0.222942        -6.0666
  38   0.0000      -0.170566        -4.6413
  39   0.0000      -0.158275        -4.3069
  40   0.0000      -0.064165        -1.7460

MULLIKEN ATOMIC CHARGES
-----------------------
   0 C :   -0.015289
   1 C :    0.020302
   2 C :    0.062170
   3 C :    0.136305
   4 C :    0.063061
   5 C :    0.020070
   6 C :    0.059769
   7 H :    0.096280
   8 H :    0.068027
   9 H :    0.066006
  10 H :    0.038793
  11 H :    0.050076
  12 H :    0.050350
  13 H :    0.038761
  14 N :    0.240537
  15 O :   -0.159405
  16 O :   -0.159744
  17 H :    0.323929
Sum of atomic charges:    1.0000000

LOEWDIN ATOMIC CHARGES
----------------------
   0 C :    0.082740
   1 C :    0.026160
   2 C :    0.029429
   3 C :    0.051052
   4 C :    0.030737
   5 C :    0.024786
   6 C :   -0.028632
   7 H :    0.082404
   8 H :    0.057900
   9 H :    0.055662
  10 H :    0.054802
  11 H :    0.062001
  12 H :    0.062101
  13 H :    0.054834
  14 N :    0.275700
  15 O :   -0.122655
  16 O :   -0.122949
  17 H :    0.323929

  Mayer bond orders larger than 0.100000
B(  0-C ,  1-C ) :   1.2414 B(  0-C ,  5-C ) :   1.2461 B(  0-C ,  6-C ) :   1.1074
B(  0-C , 17-H ) :   0.1977 B(  1-C ,  2-C ) :   1.4329 B(  1-C , 10-H ) :   0.9863
B(  2-C ,  3-C ) :   1.2843 B(  2-C , 11-H ) :   0.9872 B(  3-C ,  4-C ) :   1.2821
B(  3-C , 14-N ) :   0.8635 B(  3-C , 17-H ) :   0.2087 B(  4-C ,  5-C ) :   1.4318
B(  4-C , 12-H ) :   0.9870 B(  5-C , 13-H ) :   0.9861 B(  6-C ,  7-H ) :   0.9066
B(  6-C ,  8-H ) :   0.9441 B(  6-C ,  9-H ) :   0.9479 B( 14-N , 15-O ) :   1.5290
B( 14-N , 16-O ) :   1.5301 B( 15-O , 16-O ) :   0.2926 B( 15-O , 17-H ) :   0.1039
B( 16-O , 17-H ) :   0.1009

Dispersion correction           -0.026494665
FINAL SINGLE POINT ENERGY      -475.600370439535

DIPOLE MOMENT
-------------
                                X             Y             Z
Electronic contribution:     -4.09945      -3.92471      -3.43507
Nuclear contribution   :      0.00377       0.28126      -2.05481
                        -----------------------------------------
Total Dipole Moment    :     -4.09568      -3.64345      -5.48988
                        -----------------------------------------
Magnitude (a.u.)       :      7.75810
Magnitude (Debye)      :     19.71952

Dispersion correction in the Hessian             ... Starting D4

VIBRATIONAL FREQUENCIES
-----------------------

Scaling factor for frequencies =  1.000000000  (already applied!)

   0:         0.00 cm**-1
   1:         0.00 cm**-1
   2:         0.00 cm**-1
   3:         0.00 cm**-1
   4:         0.00 cm**-1
   5:         0.00 cm**-1
   6:       -12.84 cm**-1 ***imaginary mode***
   7:        -4.45 cm**-1 ***imaginary mode***
   8:        -2.88 cm**-1 ***imaginary mode***
   9:         9.53 cm**-1
  10:        76.86 cm**-1
  11:        92.69 cm**-1
  12:       198.77 cm**-1
  13:       241.11 cm**-1
  14:       349.92 cm**-1
  15:       356.12 cm**-1
  16:       392.00 cm**-1
  17:       430.06 cm**-1
  18:       539.06 cm**-1
  19:       589.50 cm**-1
  20:       619.94 cm**-1
  21:       683.01 cm**-1
  22:       751.38 cm**-1
  23:       790.11 cm**-1
  24:       822.00 cm**-1
  25:       844.10 cm**-1
  26:       854.90 cm**-1
  27:       983.42 cm**-1
  28:       989.20 cm**-1
  29:      1005.83 cm**-1
  30:      1015.91 cm**-1
  31:      1021.84 cm**-1
  32:      1138.45 cm**-1
  33:      1143.76 cm**-1
  34:      1202.20 cm**-1
  35:      1253.24 cm**-1
  36:      1291.60 cm**-1
  37:      1351.14 cm**-1
  38:      1364.40 cm**-1
  39:      1419.55 cm**-1
  40:      1422.73 cm**-1
  41:      1437.21 cm**-1
  42:      1454.78 cm**-1
  43:      1485.71 cm**-1
  44:      1492.03 cm**-1
  45:      1602.55 cm**-1
  46:      1661.24 cm**-1
  47:      2977.42 cm**-1
  48:      3082.64 cm**-1
  49:      3144.16 cm**-1
  50:      3204.36 cm**-1
  51:      3205.28 cm**-1
  52:      3228.05 cm**-1
  53:      3228.44 cm**-1

IR SPECTRUM
-----------

 Mode   freq       eps      Int      T**2         TX        TY        TZ
       cm**-1   L/(mol*cm) km/mol    a.u.
----------------------------------------------------------------------------
  9:      9.53   0.021323  107.76  0.697976  (-0.464410 -0.449496 -0.529389)
 10:     76.86   0.000401    2.03  0.001627  ( 0.021070  0.014515  0.031189)
 11:     92.69   0.000108    0.55  0.000365  ( 0.009766  0.002587 -0.016223)
 12:    198.77   0.000498    2.51  0.000781  (-0.018354  0.021035 -0.001386)
 13:    241.11   0.000731    3.69  0.000946  (-0.005231 -0.018285  0.024164)
 14:    349.92   0.001743    8.81  0.001555  ( 0.019661  0.017873  0.029135)
 15:    356.12   0.000195    0.98  0.000171  (-0.000222 -0.012315  0.004335)
 16:    392.00   0.000396    2.00  0.000315  (-0.007677 -0.009325 -0.013006)
 17:    430.06   0.000642    3.25  0.000466  ( 0.009795 -0.012338 -0.014758)
 18:    539.06   0.002733   13.81  0.001582  (-0.006866  0.003519  0.039018)
 19:    589.50   0.000052    0.26  0.000028  (-0.004274  0.002689 -0.001429)
 20:    619.94   0.007685   38.84  0.003868  ( 0.035544  0.031991  0.039769)
 21:    683.01   0.001354    6.84  0.000619  (-0.004294 -0.003992 -0.024173)
 22:    751.38   0.005393   27.26  0.002240  ( 0.034176  0.022143 -0.024119)
 23:    790.11   0.001847    9.34  0.000730  (-0.017853 -0.014482 -0.014182)
 24:    822.00   0.001142    5.77  0.000433  (-0.011768 -0.009447 -0.014344)
 25:    844.10   0.033362  168.60  0.012334  ( 0.060554  0.056195  0.074225)
 26:    854.90   0.007801   39.42  0.002848  ( 0.046501  0.025047  0.007618)
 27:    983.42   0.017401   87.94  0.005522  (-0.027445 -0.035995 -0.058931)
 28:    989.20   0.015477   78.22  0.004883  ( 0.022430  0.025812  0.060936)
 29:   1005.83   0.000107    0.54  0.000033  (-0.003672 -0.004360 -0.000747)
 30:   1015.91   0.001787    9.03  0.000549  ( 0.012116  0.012248  0.015877)
 31:   1021.84   0.010833   54.75  0.003308  ( 0.019014  0.027716  0.046675)
 32:   1138.45   0.002115   10.69  0.000580  ( 0.008873 -0.022143 -0.003267)
 33:   1143.76   0.033846  171.04  0.009235  ( 0.053258  0.046593  0.065017)
 34:   1202.20   0.036094  182.41  0.009369  ( 0.053158  0.048942  0.064407)
 35:   1253.24   0.069061  349.01  0.017197  (-0.070956 -0.066528 -0.087953)
 36:   1291.60   0.000396    2.00  0.000096  (-0.007528  0.000803 -0.006196)
 37:   1351.14   0.067809  342.68  0.015661  ( 0.056060  0.066313  0.090118)
 38:   1364.40   0.003520   17.79  0.000805  (-0.016861  0.013031 -0.018736)
 39:   1419.55   0.000349    1.76  0.000077  ( 0.006122 -0.006188 -0.000990)
 40:   1422.73   0.002019   10.20  0.000443  (-0.010066 -0.009104 -0.016083)
 41:   1437.21   0.011299   57.10  0.002453  (-0.029715  0.038382 -0.009862)
 42:   1454.78   0.018704   94.52  0.004012  (-0.020359 -0.032159 -0.050632)
 43:   1485.71   0.001568    7.92  0.000329  ( 0.000200 -0.017407  0.005120)
 44:   1492.03   0.046457  234.77  0.009717  ( 0.058281  0.052361  0.059818)
 45:   1602.55   0.026690  134.88  0.005197  (-0.057177  0.039741  0.018678)
 46:   1661.24   0.304797  1540.32  0.057256  (-0.132110 -0.121743 -0.158055)
 47:   2977.42   0.114979  581.06  0.012051  ( 0.057318  0.055879  0.075121)
 48:   3082.64   0.001166    5.89  0.000118  (-0.003853 -0.004747 -0.008983)
 49:   3144.16   0.000564    2.85  0.000056  (-0.004317 -0.003639 -0.004906)
 50:   3204.36   0.000368    1.86  0.000036  ( 0.003582  0.001607  0.004517)
 51:   3205.28   0.000494    2.50  0.000048  (-0.003230 -0.004353 -0.004325)
 52:   3228.05   0.003091   15.62  0.000299  ( 0.008196 -0.014946  0.002878)
 53:   3228.44   0.000796    4.02  0.000077  (-0.006896  0.004151 -0.003485)

--------------------------
THERMOCHEMISTRY AT 298.15K
--------------------------

Temperature         ... 298.15 K
Pressure            ... 1.00 atm
Total Mass          ... 138.15 AMU

Throughout the following assumptions are being made:
  (1) The electronic state is orbitally nondegenerate
  (2) There are no thermally accessible electronically excited states
  (3) Hindered rotations indicated by low frequency modes are not
      treated as such but are treated as vibrations and this may
      cause some error
  (4) All equations used are the standard statistical mechanics
      equations for an ideal gas
  (5) All vibrations are strictly harmonic

freq.       9.53  E(vib)   ...       0.58
freq.      76.86  E(vib)   ...       0.49
freq.      92.69  E(vib)   ...       0.47
freq.     198.77  E(vib)   ...       0.35
freq.     241.11  E(vib)   ...       0.31
freq.     349.92  E(vib)   ...       0.23
freq.     356.12  E(vib)   ...       0.22
freq.     392.00  E(vib)   ...       0.20
freq.     430.06  E(vib)   ...       0.18
freq.     539.06  E(vib)   ...       0.12
freq.     589.50  E(vib)   ...       0.10
freq.     619.94  E(vib)   ...       0.09
freq.     683.01  E(vib)   ...       0.08
freq.     751.38  E(vib)   ...       0.06
freq.     790.11  E(vib)   ...       0.05
freq.     822.00  E(vib)   ...       0.05
freq.     844.10  E(vib)   ...       0.04
freq.     854.90  E(vib)   ...       0.04
freq.     983.42  E(vib)   ...       0.02
freq.     989.20  E(vib)   ...       0.02
freq.    1005.83  E(vib)   ...       0.02
freq.    1015.91  E(vib)   ...       0.02
freq.    1021.84  E(vib)   ...       0.02
freq.    1138.45  E(vib)   ...       0.01
freq.    1143.76  E(vib)   ...       0.01
freq.    1202.20  E(vib)   ...       0.01
freq.    1253.24  E(vib)   ...       0.01
freq.    1291.60  E(vib)   ...       0.01
freq.    1351.14  E(vib)   ...       0.01
freq.    1364.40  E(vib)   ...       0.01
freq.    1419.55  E(vib)   ...       0.00
freq.    1422.73  E(vib)   ...       0.00
freq.    1437.21  E(vib)   ...       0.00
freq.    1454.78  E(vib)   ...       0.00
freq.    1485.71  E(vib)   ...       0.00
freq.    1492.03  E(vib)   ...       0.00
freq.    1602.55  E(vib)   ...       0.00
freq.    1661.24  E(vib)   ...       0.00
freq.    2977.42  E(vib)   ...       0.00
freq.    3082.64  E(vib)   ...       0.00
freq.    3144.16  E(vib)   ...       0.00
freq.    3204.36  E(vib)   ...       0.00
freq.    3205.28  E(vib)   ...       0.00
freq.    3228.05  E(vib)   ...       0.00
freq.    3228.44  E(vib)   ...       0.00

------------
INNER ENERGY
------------

The inner energy is: U= E(el) + E(ZPE) + E(vib) + E(rot) + E(trans)
    E(el)   - is the total energy from the electronic structure calculation
              = E(kin-el) + E(nuc-el) + E(el-el) + E(nuc-nuc)
    E(ZPE)  - the the zero temperature vibrational energy from the frequency calculation
    E(vib)  - the the finite temperature correction to E(ZPE) due to population
              of excited vibrational states
    E(rot)  - is the rotational thermal energy
    E(trans)- is the translational thermal energy

Summary of contributions to the inner energy U:
Electronic energy                ...   -475.60037044 Eh
Zero point energy                ...      0.12859846 Eh      80.70 kcal/mol
Thermal vibrational correction   ...      0.00616303 Eh       3.87 kcal/mol
Thermal rotational correction    ...      0.00141627 Eh       0.89 kcal/mol
Thermal translational correction ...      0.00141627 Eh       0.89 kcal/mol
-----------------------------------------------------------------------
Total thermal energy                   -475.46277640 Eh

Summary of corrections to the electronic energy:
(perhaps to be used in another calculation)
Total thermal correction                  0.00899558 Eh       5.64 kcal/mol
Non-thermal (ZPE) correction              0.12859846 Eh      80.70 kcal/mol
-----------------------------------------------------------------------
Total correction                          0.13759404 Eh      86.34 kcal/mol

--------
ENTHALPY
--------

The enthalpy is H = U + kB*T
                kB is Boltzmann's constant
Total free energy                 ...   -475.46277640 Eh
Thermal Enthalpy correction       ...      0.00094421 Eh       0.59 kcal/mol
-----------------------------------------------------------------------
Total Enthalpy                    ...   -475.46183219 Eh

Note: Only C1 symmetry has been detected, increase convergence thresholds
      if your molecule has a higher symmetry. Symmetry factor of 1.0 is
      used for the rotational entropy correction.

Note: Rotational entropy computed according to Herzberg
Infrared and Raman Spectra, Chapter V,1, Van Nostrand Reinhold, 1945
Point Group:  C1, Symmetry Number:   1
Rotational constants in cm-1:     0.124016     0.018356     0.016439

Vibrational entropy computed according to the QRRHO of S. Grimme
Chem.Eur.J. 2012 18 9955

-------
ENTROPY
-------

The entropy contributions are T*S = T*(S(el)+S(vib)+S(rot)+S(trans))
     S(el)   - electronic entropy
     S(vib)  - vibrational entropy
     S(rot)  - rotational entropy
     S(trans)- translational entropy
The entropies will be listed as multiplied by the temperature to get
units of energy

Electronic entropy                ...      0.00000000 Eh      0.00 kcal/mol
Vibrational entropy               ...      0.01114184 Eh      6.99 kcal/mol
Rotational entropy                ...      0.01432294 Eh      8.99 kcal/mol
Translational entropy             ...      0.01932890 Eh     12.13 kcal/mol
-----------------------------------------------------------------------
Final entropy term                ...      0.04479368 Eh     28.11 kcal/mol

In case the symmetry of your molecule has not been determined correctly
or in case you have a reason to use a different symmetry number we print
out the resulting rotational entropy values for sn=1,12 :
 --------------------------------------------------------
|  sn= 1 | S(rot)=       0.01432294 Eh      8.99 kcal/mol|
|  sn= 2 | S(rot)=       0.01366848 Eh      8.58 kcal/mol|
|  sn= 3 | S(rot)=       0.01328565 Eh      8.34 kcal/mol|
|  sn= 4 | S(rot)=       0.01301402 Eh      8.17 kcal/mol|
|  sn= 5 | S(rot)=       0.01280334 Eh      8.03 kcal/mol|
|  sn= 6 | S(rot)=       0.01263119 Eh      7.93 kcal/mol|
|  sn= 7 | S(rot)=       0.01248564 Eh      7.83 kcal/mol|
|  sn= 8 | S(rot)=       0.01235957 Eh      7.76 kcal/mol|
|  sn= 9 | S(rot)=       0.01224836 Eh      7.69 kcal/mol|
|  sn=10 | S(rot)=       0.01214888 Eh      7.62 kcal/mol|
|  sn=11 | S(rot)=       0.01205889 Eh      7.57 kcal/mol|
|  sn=12 | S(rot)=       0.01197673 Eh      7.52 kcal/mol|
 --------------------------------------------------------

-------------------
GIBBS FREE ENERGY
-------------------

                             ****ORCA TERMINATED NORMALLY****
TOTAL RUN TIME: 1 days 1 hours 59 minutes 48 seconds 629 msec
