                         Program Version 5.0.4 -  RELEASE  -
|  1> !B3LYP DEF2-SVP OPT FREQ D4 SOSCF
|  2>
|  3> %geom
|  4> convergence loose
|  5> end
|  6>
|  7> * xyz 1 1
|  8>   C   -6.13365314899140      0.61505152661642      1.90541479158520
|  9>   C   -6.66110307230404      1.10373424329405      0.68052420305059
| 10>   C   -6.46067066299769      0.41484594766513     -0.48884545505384
| 11>   C   -5.73420726329419     -0.78970004876894     -0.47093385034143
| 12>   C   -5.17358420487416     -1.27878912803937      0.72781908918293
| 13>   C   -5.36999337091810     -0.59293442966711      1.89463095928105
| 14>   C   -6.35694970564776      1.32834589286431      3.17586501142460
| 15>   H   -5.39366711150410      1.66290970381082      3.58925603964312
| 16>   H   -6.76140842564602      0.64703158910716      3.93854154707129
| 17>   H   -7.01043094200828      2.18953824113676      3.07214938968517
| 18>   H   -7.22335619906079      2.02704785702307      0.68306722560751
| 19>   H   -6.86125488776009      0.79178029387370     -1.41917248246674
| 20>   H   -5.62244642507858     -1.36617781098927     -1.37843902218044
| 21>   H   -4.60536373604865     -2.19769961568911      0.71748235719348
| 22>   H   -4.95856463350885     -0.95710017241882      2.82653574401320
| 23>   N   -9.09926683238473     -0.85626174087526    -13.94132873212742
| 24>   O   -8.71052921950867     -0.91822187045438    -12.75201446975389
| 25>   O   -7.96797772543029     -0.93160726352387    -14.49047533794576
| 26> **                         ****END OF INPUT****
 Total Charge           Charge          ....    1
 Multiplicity           Mult            ....    1
 Number of Electrons    NEL             ....   72
Dispersion correction           -0.021543735
FINAL SINGLE POINT ENERGY      -475.624508855680
Dispersion correction            ... Starting D4
Dispersion correction           -0.021440432
FINAL SINGLE POINT ENERGY      -475.625831362667
Dispersion correction            ... Starting D4
Dispersion correction           -0.021424892
FINAL SINGLE POINT ENERGY      -475.625921805201
Dispersion correction            ... Starting D4
FINAL SINGLE POINT ENERGY      -475.625961465583
FINAL SINGLE POINT ENERGY      -475.625980251431
FINAL SINGLE POINT ENERGY      -475.625994656882
FINAL SINGLE POINT ENERGY      -475.626007949034
FINAL SINGLE POINT ENERGY      -475.626020954264
FINAL SINGLE POINT ENERGY      -475.626033848164
FINAL SINGLE POINT ENERGY      -475.626046550169
FINAL SINGLE POINT ENERGY      -475.626340933040
FINAL SINGLE POINT ENERGY      -475.626349008538
FINAL SINGLE POINT ENERGY      -475.626368886969
FINAL SINGLE POINT ENERGY      -475.626398815186
FINAL SINGLE POINT ENERGY      -475.626326998738
FINAL SINGLE POINT ENERGY      -475.626373833877
FINAL SINGLE POINT ENERGY      -475.626350791276
Dispersion correction           -0.021435817
FINAL SINGLE POINT ENERGY      -475.625404730579
Dispersion correction            ... Starting D4
Dispersion correction           -0.021443811
FINAL SINGLE POINT ENERGY      -475.626391647937
Dispersion correction            ... Starting D4
                    ***********************HURRAY********************

CARTESIAN COORDINATES (ANGSTROEM)
---------------------------------
  C     -6.121236    0.680633    2.279436
  C     -6.420518    0.960842    0.911849
  C     -5.978294    0.117599   -0.087314
  C     -5.220079   -1.036835    0.244988
  C     -4.910091   -1.333079    1.594039
  C     -5.352171   -0.491906    2.593971
  C     -6.597968    1.563884    3.367283
  H     -5.773906    1.811867    4.062843
  H     -7.338305    1.021357    3.995485
  H     -7.066705    2.485670    2.998321
  H     -7.003371    1.851932    0.668867
  H     -6.206260    0.327882   -1.134350
  H     -4.875226   -1.700031   -0.552978
  H     -4.324584   -2.222786    1.834238
  H     -5.122051   -0.706400    3.640576
  N     -9.742083   -0.831376  -16.308956
  O     -9.476628   -0.760941  -15.089485
  O     -8.574953   -0.846519  -16.748736

 Multiplicity           Mult            ....    1
 Number of Electrons    NEL             ....   72
 Basis Dimension        Dim             ....  180

ORBITAL ENERGIES
----------------

  NO   OCC          E(Eh)            E(eV)
   0   2.0000     -19.381973      -527.4103
   1   2.0000     -19.380854      -527.3798
   2   2.0000     -14.643181      -398.4612
   3   2.0000     -10.394231      -282.8414
   4   2.0000     -10.382138      -282.5123
   5   2.0000     -10.363361      -282.0014
   6   2.0000     -10.361106      -281.9400
   7   2.0000     -10.359422      -281.8942
   8   2.0000     -10.358107      -281.8584
   9   2.0000     -10.338004      -281.3114
  10   2.0000      -1.396290       -37.9950
  11   2.0000      -1.157608       -31.5001
  12   2.0000      -1.020819       -27.7779
  13   2.0000      -0.933251       -25.3950
  14   2.0000      -0.908335       -24.7170
  15   2.0000      -0.838206       -22.8088
  16   2.0000      -0.781077       -21.2542
  17   2.0000      -0.765122       -20.8200
  18   2.0000      -0.743367       -20.2280
  19   2.0000      -0.671206       -18.2644
  20   2.0000      -0.659704       -17.9515
  21   2.0000      -0.656772       -17.8717
  22   2.0000      -0.647938       -17.6313
  23   2.0000      -0.631365       -17.1803
  24   2.0000      -0.610086       -16.6013
  25   2.0000      -0.587307       -15.9814
  26   2.0000      -0.573507       -15.6059
  27   2.0000      -0.572810       -15.5870
  28   2.0000      -0.538913       -14.6646
  29   2.0000      -0.515449       -14.0261
  30   2.0000      -0.514351       -13.9962
  31   2.0000      -0.502500       -13.6737
  32   2.0000      -0.480730       -13.0813
  33   2.0000      -0.444701       -12.1009
  34   2.0000      -0.424674       -11.5560
  35   2.0000      -0.394017       -10.7217
  36   0.0000      -0.388046       -10.5593
  37   0.0000      -0.220357        -5.9962
  38   0.0000      -0.182993        -4.9795
  39   0.0000      -0.167997        -4.5714
  40   0.0000      -0.070286        -1.9126

MULLIKEN ATOMIC CHARGES
-----------------------
   0 C :   -0.037102
   1 C :    0.042906
   2 C :    0.050116
   3 C :    0.079419
   4 C :    0.047537
   5 C :    0.045344
   6 C :    0.058892
   7 H :    0.084468
   8 H :    0.095337
   9 H :    0.062448
  10 H :    0.036876
  11 H :    0.050521
  12 H :    0.064077
  13 H :    0.051339
  14 H :    0.038846
  15 N :    0.299221
  16 O :   -0.038851
  17 O :   -0.031394
Sum of atomic charges:    1.0000000

LOEWDIN ATOMIC CHARGES
----------------------
   0 C :    0.095485
   1 C :    0.020692
   2 C :    0.028795
   3 C :    0.112137
   4 C :    0.016304
   5 C :    0.036780
   6 C :   -0.027461
   7 H :    0.073042
   8 H :    0.083282
   9 H :    0.051480
  10 H :    0.053059
  11 H :    0.057041
  12 H :    0.059367
  13 H :    0.057461
  14 H :    0.053558
  15 N :    0.156401
  16 O :    0.032669
  17 O :    0.039907

  Mayer bond orders larger than 0.100000
B(  0-C ,  1-C ) :   1.2361 B(  0-C ,  5-C ) :   1.1897 B(  0-C ,  6-C ) :   1.1156
B(  0-C , 16-O ) :   0.1324 B(  0-C , 17-O ) :   0.1328 B(  1-C ,  2-C ) :   1.4741
B(  1-C , 10-H ) :   0.9882 B(  2-C ,  3-C ) :   1.2393 B(  2-C , 11-H ) :   0.9841
B(  3-C ,  4-C ) :   1.2606 B(  3-C , 12-H ) :   0.9822 B(  3-C , 16-O ) :   0.1426
B(  3-C , 17-O ) :   0.1430 B(  4-C ,  5-C ) :   1.4821 B(  4-C , 13-H ) :   0.9858
B(  5-C , 14-H ) :   0.9908 B(  6-C ,  7-H ) :   0.9210 B(  6-C ,  8-H ) :   0.9051
B(  6-C ,  9-H ) :   0.9570 B( 15-N , 16-O ) :   1.3888 B( 15-N , 17-O ) :   1.3953
B( 16-O , 17-O ) :   0.4800

Dispersion correction           -0.021439990
FINAL SINGLE POINT ENERGY      -475.626387974060

DIPOLE MOMENT
-------------
                                X             Y             Z
Electronic contribution:     -6.86804      -4.07248     -42.77648
Nuclear contribution   :      7.37379       4.24293      46.26365
                        -----------------------------------------
Total Dipole Moment    :      0.50576       0.17045       3.48718
                        -----------------------------------------
Magnitude (a.u.)       :      3.52778
Magnitude (Debye)      :      8.96690

Dispersion correction in the Hessian             ... Starting D4

VIBRATIONAL FREQUENCIES
-----------------------

Scaling factor for frequencies =  1.000000000  (already applied!)

   0:         0.00 cm**-1
   1:         0.00 cm**-1
   2:         0.00 cm**-1
   3:         0.00 cm**-1
   4:         0.00 cm**-1
   5:         0.00 cm**-1
   6:       -51.02 cm**-1 ***imaginary mode***
   7:       -34.00 cm**-1 ***imaginary mode***
   8:       -28.04 cm**-1 ***imaginary mode***
   9:        -2.60 cm**-1 ***imaginary mode***
  10:         2.33 cm**-1
  11:         3.49 cm**-1
  12:        80.39 cm**-1
  13:       173.89 cm**-1
  14:       349.06 cm**-1
  15:       371.92 cm**-1
  16:       426.49 cm**-1
  17:       515.36 cm**-1
  18:       535.33 cm**-1
  19:       610.25 cm**-1
  20:       710.38 cm**-1
  21:       751.62 cm**-1
  22:       790.65 cm**-1
  23:       816.04 cm**-1
  24:       839.72 cm**-1
  25:       937.20 cm**-1
  26:       970.43 cm**-1
  27:      1001.84 cm**-1
  28:      1005.56 cm**-1
  29:      1013.77 cm**-1
  30:      1019.98 cm**-1
  31:      1038.69 cm**-1
  32:      1091.69 cm**-1
  33:      1152.52 cm**-1
  34:      1198.48 cm**-1
  35:      1258.18 cm**-1
  36:      1290.44 cm**-1
  37:      1341.36 cm**-1
  38:      1383.91 cm**-1
  39:      1400.70 cm**-1
  40:      1415.19 cm**-1
  41:      1451.95 cm**-1
  42:      1483.78 cm**-1
  43:      1522.63 cm**-1
  44:      1534.41 cm**-1
  45:      1674.58 cm**-1
  46:      2965.68 cm**-1
  47:      3034.92 cm**-1
  48:      3152.11 cm**-1
  49:      3196.92 cm**-1
  50:      3200.76 cm**-1
  51:      3205.70 cm**-1
  52:      3216.01 cm**-1
  53:      3219.69 cm**-1

IR SPECTRUM
-----------

 Mode   freq       eps      Int      T**2         TX        TY        TZ
       cm**-1   L/(mol*cm) km/mol    a.u.
----------------------------------------------------------------------------
 10:      2.33   0.000000    0.00  0.000000  ( 0.000000  0.000000  0.000000)
 11:      3.49   0.000000    0.00  0.000000  ( 0.000000  0.000000  0.000000)
 12:     80.39   0.000686    3.47  0.002665  (-0.049320 -0.013021 -0.007929)
 13:    173.89   0.000216    1.09  0.000387  (-0.014743 -0.012798  0.002491)
 14:    349.06   0.001068    5.39  0.000954  ( 0.008070 -0.005605  0.029289)
 15:    371.92   0.000003    0.02  0.000003  (-0.001362  0.000626 -0.000521)
 16:    426.49   0.000156    0.79  0.000114  (-0.006346 -0.004341  0.007437)
 17:    515.36   0.022205  112.21  0.013445  (-0.018813 -0.010066 -0.113975)
 18:    535.33   0.011202   56.61  0.006530  (-0.021772  0.007313 -0.077477)
 19:    610.25   0.004736   23.93  0.002422  (-0.038684 -0.023804  0.018939)
 20:    710.38   1.460862  7382.60  0.641744  (-0.175525 -0.040322 -0.780583)
 21:    751.62   0.006341   32.05  0.002633  (-0.041770 -0.029731  0.002019)
 22:    790.65   0.000972    4.91  0.000384  (-0.009106 -0.001761 -0.017251)
 23:    816.04   0.000113    0.57  0.000043  ( 0.005473  0.003031  0.001971)
 24:    839.72   0.040258  203.45  0.014961  ( 0.036837 -0.005983 -0.116483)
 25:    937.20   0.002850   14.40  0.000949  ( 0.005840 -0.000490 -0.030243)
 26:    970.43   0.034020  171.92  0.010940  ( 0.011091  0.012137  0.103294)
 27:   1001.84   0.015738   79.53  0.004902  ( 0.006266 -0.004379  0.069597)
 28:   1005.56   0.002851   14.41  0.000885  (-0.028772 -0.006936  0.002973)
 29:   1013.77   0.003923   19.83  0.001208  (-0.012574  0.010973 -0.030482)
 30:   1019.98   0.000092    0.46  0.000028  (-0.003123 -0.001852  0.003857)
 31:   1038.69   0.000034    0.17  0.000010  ( 0.002118  0.001841  0.001482)
 32:   1091.69   0.003611   18.25  0.001032  ( 0.014804 -0.019351  0.020944)
 33:   1152.52   0.008407   42.49  0.002276  (-0.003325 -0.008246 -0.046875)
 34:   1198.48   0.058932  297.82  0.015345  (-0.019554 -0.009889 -0.121922)
 35:   1258.18   0.056019  283.10  0.013894  ( 0.013367  0.014638  0.116195)
 36:   1290.44   0.036953  186.74  0.008936  ( 0.002073  0.019037  0.092572)
 37:   1341.36   0.060413  305.30  0.014055  (-0.001977  0.018726  0.117049)
 38:   1383.91   0.000610    3.08  0.000138  (-0.011153  0.002405  0.002721)
 39:   1400.70   0.003044   15.38  0.000678  (-0.024544 -0.002570 -0.008316)
 40:   1415.19   0.005781   29.21  0.001275  ( 0.011307 -0.019274  0.027846)
 41:   1451.95   0.023439  118.45  0.005038  (-0.003240 -0.003276 -0.070828)
 42:   1483.78   0.046915  237.09  0.009867  ( 0.013618 -0.043461 -0.088276)
 43:   1522.63   0.004795   24.23  0.000983  (-0.013249  0.017666 -0.022251)
 44:   1534.41   0.089440  451.99  0.018190  ( 0.044019  0.006257  0.127331)
 45:   1674.58   0.331542  1675.48  0.061784  ( 0.043206  0.015986  0.244257)
 46:   2965.68   0.115848  585.45  0.012190  ( 0.001881  0.019473  0.108662)
 47:   3034.92   0.007386   37.33  0.000759  ( 0.007919  0.007759  0.025230)
 48:   3152.11   0.015783   79.76  0.001563  ( 0.001420  0.009591  0.038322)
 49:   3196.92   0.000124    0.63  0.000012  (-0.000442  0.001660  0.003022)
 50:   3200.76   0.000004    0.02  0.000000  ( 0.000470  0.000013  0.000433)
 51:   3205.70   0.001118    5.65  0.000109  ( 0.002716 -0.000636  0.010052)
 52:   3216.01   0.000717    3.62  0.000070  (-0.003515  0.004490 -0.006085)
 53:   3219.69   0.000971    4.91  0.000094  ( 0.000184  0.002645  0.009334)

--------------------------
THERMOCHEMISTRY AT 298.15K
--------------------------

Temperature         ... 298.15 K
Pressure            ... 1.00 atm
Total Mass          ... 138.15 AMU

Throughout the following assumptions are being made:
  (1) The electronic state is orbitally nondegenerate
  (2) There are no thermally accessible electronically excited states
  (3) Hindered rotations indicated by low frequency modes are not
      treated as such but are treated as vibrations and this may
      cause some error
  (4) All equations used are the standard statistical mechanics
      equations for an ideal gas
  (5) All vibrations are strictly harmonic

freq.       2.33  E(vib)   ...       0.59
freq.       3.49  E(vib)   ...       0.59
freq.      80.39  E(vib)   ...       0.48
freq.     173.89  E(vib)   ...       0.38
freq.     349.06  E(vib)   ...       0.23
freq.     371.92  E(vib)   ...       0.21
freq.     426.49  E(vib)   ...       0.18
freq.     515.36  E(vib)   ...       0.13
freq.     535.33  E(vib)   ...       0.13
freq.     610.25  E(vib)   ...       0.10
freq.     710.38  E(vib)   ...       0.07
freq.     751.62  E(vib)   ...       0.06
freq.     790.65  E(vib)   ...       0.05
freq.     816.04  E(vib)   ...       0.05
freq.     839.72  E(vib)   ...       0.04
freq.     937.20  E(vib)   ...       0.03
freq.     970.43  E(vib)   ...       0.03
freq.    1001.84  E(vib)   ...       0.02
freq.    1005.56  E(vib)   ...       0.02
freq.    1013.77  E(vib)   ...       0.02
freq.    1019.98  E(vib)   ...       0.02
freq.    1038.69  E(vib)   ...       0.02
freq.    1091.69  E(vib)   ...       0.02
freq.    1152.52  E(vib)   ...       0.01
freq.    1198.48  E(vib)   ...       0.01
freq.    1258.18  E(vib)   ...       0.01
freq.    1290.44  E(vib)   ...       0.01
freq.    1341.36  E(vib)   ...       0.01
freq.    1383.91  E(vib)   ...       0.00
freq.    1400.70  E(vib)   ...       0.00
freq.    1415.19  E(vib)   ...       0.00
freq.    1451.95  E(vib)   ...       0.00
freq.    1483.78  E(vib)   ...       0.00
freq.    1522.63  E(vib)   ...       0.00
freq.    1534.41  E(vib)   ...       0.00
freq.    1674.58  E(vib)   ...       0.00
freq.    2965.68  E(vib)   ...       0.00
freq.    3034.92  E(vib)   ...       0.00
freq.    3152.11  E(vib)   ...       0.00
freq.    3196.92  E(vib)   ...       0.00
freq.    3200.76  E(vib)   ...       0.00
freq.    3205.70  E(vib)   ...       0.00
freq.    3216.01  E(vib)   ...       0.00
freq.    3219.69  E(vib)   ...       0.00

------------
INNER ENERGY
------------

The inner energy is: U= E(el) + E(ZPE) + E(vib) + E(rot) + E(trans)
    E(el)   - is the total energy from the electronic structure calculation
              = E(kin-el) + E(nuc-el) + E(el-el) + E(nuc-nuc)
    E(ZPE)  - the the zero temperature vibrational energy from the frequency calculation
    E(vib)  - the the finite temperature correction to E(ZPE) due to population
              of excited vibrational states
    E(rot)  - is the rotational thermal energy
    E(trans)- is the translational thermal energy

Summary of contributions to the inner energy U:
Electronic energy                ...   -475.62638797 Eh
Zero point energy                ...      0.13294480 Eh      83.42 kcal/mol
Thermal vibrational correction   ...      0.00563056 Eh       3.53 kcal/mol
Thermal rotational correction    ...      0.00141627 Eh       0.89 kcal/mol
Thermal translational correction ...      0.00141627 Eh       0.89 kcal/mol
-----------------------------------------------------------------------
Total thermal energy                   -475.48498007 Eh

Summary of corrections to the electronic energy:
(perhaps to be used in another calculation)
Total thermal correction                  0.00846311 Eh       5.31 kcal/mol
Non-thermal (ZPE) correction              0.13294480 Eh      83.42 kcal/mol
-----------------------------------------------------------------------
Total correction                          0.14140791 Eh      88.73 kcal/mol

--------
ENTHALPY
--------

The enthalpy is H = U + kB*T
                kB is Boltzmann's constant
Total free energy                 ...   -475.48498007 Eh
Thermal Enthalpy correction       ...      0.00094421 Eh       0.59 kcal/mol
-----------------------------------------------------------------------
Total Enthalpy                    ...   -475.48403586 Eh

Note: Only C1 symmetry has been detected, increase convergence thresholds
      if your molecule has a higher symmetry. Symmetry factor of 1.0 is
      used for the rotational entropy correction.

Note: Rotational entropy computed according to Herzberg
Infrared and Raman Spectra, Chapter V,1, Van Nostrand Reinhold, 1945
Point Group:  C1, Symmetry Number:   1
Rotational constants in cm-1:     0.101281     0.001670     0.001647

Vibrational entropy computed according to the QRRHO of S. Grimme
Chem.Eur.J. 2012 18 9955

-------
ENTROPY
-------

The entropy contributions are T*S = T*(S(el)+S(vib)+S(rot)+S(trans))
     S(el)   - electronic entropy
     S(vib)  - vibrational entropy
     S(rot)  - rotational entropy
     S(trans)- translational entropy
The entropies will be listed as multiplied by the temperature to get
units of energy

Electronic entropy                ...      0.00000000 Eh      0.00 kcal/mol
Vibrational entropy               ...      0.01205379 Eh      7.56 kcal/mol
Rotational entropy                ...      0.01663646 Eh     10.44 kcal/mol
Translational entropy             ...      0.01932890 Eh     12.13 kcal/mol
-----------------------------------------------------------------------
Final entropy term                ...      0.04801915 Eh     30.13 kcal/mol

In case the symmetry of your molecule has not been determined correctly
or in case you have a reason to use a different symmetry number we print
out the resulting rotational entropy values for sn=1,12 :
 --------------------------------------------------------
|  sn= 1 | S(rot)=       0.01663646 Eh     10.44 kcal/mol|
|  sn= 2 | S(rot)=       0.01598200 Eh     10.03 kcal/mol|
|  sn= 3 | S(rot)=       0.01559917 Eh      9.79 kcal/mol|
|  sn= 4 | S(rot)=       0.01532755 Eh      9.62 kcal/mol|
|  sn= 5 | S(rot)=       0.01511686 Eh      9.49 kcal/mol|
|  sn= 6 | S(rot)=       0.01494472 Eh      9.38 kcal/mol|
|  sn= 7 | S(rot)=       0.01479917 Eh      9.29 kcal/mol|
|  sn= 8 | S(rot)=       0.01467309 Eh      9.21 kcal/mol|
|  sn= 9 | S(rot)=       0.01456188 Eh      9.14 kcal/mol|
|  sn=10 | S(rot)=       0.01446240 Eh      9.08 kcal/mol|
|  sn=11 | S(rot)=       0.01437241 Eh      9.02 kcal/mol|
|  sn=12 | S(rot)=       0.01429026 Eh      8.97 kcal/mol|
 --------------------------------------------------------

-------------------
GIBBS FREE ENERGY
-------------------

                             ****ORCA TERMINATED NORMALLY****
TOTAL RUN TIME: 0 days 3 hours 33 minutes 18 seconds 700 msec
