                         Program Version 5.0.4 -  RELEASE  -
|  1> !B3LYP DEF2-SVP OPT FREQ D4 SOSCF
|  2>
|  3> %geom
|  4> convergence tight
|  5> maxIter 1000
|  6> end
|  7>
|  8> * xyz 1 1
|  9>   C   -5.72703427146964      1.01534957462634      0.03696149071032
| 10>   C   -6.84454018575559      1.46176741856509     -0.73233882647494
| 11>   C   -7.45799191329538      0.62651587394025     -1.64478219727150
| 12>   C   -6.95393427418581     -0.68058779692813     -1.79191189609400
| 13>   C   -5.85610498991532     -1.16602043398460     -1.05301132101584
| 14>   C   -5.25154532507924     -0.31569597088331     -0.14753119743350
| 15>   C   -5.05966207504511      1.93670336061047      0.99144457077189
| 16>   H   -4.45622837295099      1.40414183330862      1.73951240451427
| 17>   H   -5.78298456651414      2.60192689237097      1.49052164962716
| 18>   H   -4.37239020061200      2.60654928795642      0.43198061068561
| 19>   H   -7.21516033413545      2.47971594690919     -0.59175198476287
| 20>   H   -8.30742229989201      0.95029836886904     -2.24765866469416
| 21>   H   -5.51480320130702     -2.19131007175420     -1.20226797052613
| 22>   H   -4.39869006929925     -0.66322107686119      0.43955219399612
| 23>   N   -7.59943173896586     -1.57406770968429     -2.74978247183711
| 24>   O   -7.66605665597902     -2.75240132589317     -2.44909886633368
| 25>   O   -8.02320553669617     -1.07439753105240     -3.77617557544999
| 26>   H      -11.37421       -4.70768      -11.31832
| 27> **                         ****END OF INPUT****
 Total Charge           Charge          ....    1
 Multiplicity           Mult            ....    1
 Number of Electrons    NEL             ....   72
Dispersion correction           -0.026483622
FINAL SINGLE POINT ENERGY      -475.481204915911
Dispersion correction            ... Starting D4
Dispersion correction           -0.026468839
FINAL SINGLE POINT ENERGY      -475.484048727085
Dispersion correction            ... Starting D4
Dispersion correction           -0.026459611
FINAL SINGLE POINT ENERGY      -475.485102802929
Dispersion correction            ... Starting D4
FINAL SINGLE POINT ENERGY      -475.485736597751
FINAL SINGLE POINT ENERGY      -475.486176524437
FINAL SINGLE POINT ENERGY      -475.594225521155
FINAL SINGLE POINT ENERGY      -475.594991658120
FINAL SINGLE POINT ENERGY      -475.596251747644
FINAL SINGLE POINT ENERGY      -475.597099580180
FINAL SINGLE POINT ENERGY      -475.597634776584
FINAL SINGLE POINT ENERGY      -475.600618239284
FINAL SINGLE POINT ENERGY      -475.600630170454
FINAL SINGLE POINT ENERGY      -475.600641897925
FINAL SINGLE POINT ENERGY      -475.600653463159
FINAL SINGLE POINT ENERGY      -475.600664866275
FINAL SINGLE POINT ENERGY      -475.600676109708
FINAL SINGLE POINT ENERGY      -475.600687212676
Dispersion correction           -0.026497172
FINAL SINGLE POINT ENERGY      -475.600698198101
Dispersion correction            ... Starting D4
Dispersion correction           -0.026497250
FINAL SINGLE POINT ENERGY      -475.600709083318
Dispersion correction            ... Starting D4
                    ***********************HURRAY********************

CARTESIAN COORDINATES (ANGSTROEM)
---------------------------------
  C     -5.614861    1.130477    0.495654
  C     -6.613019    1.733292   -0.324932
  C     -7.121082    1.072231   -1.426429
  C     -6.630578   -0.216880   -1.713145
  C     -5.648191   -0.853671   -0.929767
  C     -5.147243   -0.176237    0.164605
  C     -5.047851    1.860012    1.658909
  H     -4.742838    1.176812    2.466346
  H     -5.735478    2.625014    2.048070
  H     -4.126865    2.393060    1.339708
  H     -6.978685    2.731277   -0.073311
  H     -7.878977    1.518199   -2.071893
  H     -5.312729   -1.857569   -1.193753
  H     -4.384414   -0.643708    0.791354
  N     -7.166998   -0.925265   -2.872256
  O     -7.309482   -2.129716   -2.766573
  O     -7.431105   -0.257110   -3.855234
  H    -14.971000   -9.222630  -16.312011

 Multiplicity           Mult            ....    1
 Number of Electrons    NEL             ....   72
 Basis Dimension        Dim             ....  180

ORBITAL ENERGIES
----------------

  NO   OCC          E(Eh)            E(eV)
   0   2.0000     -19.308970      -525.4238
   1   2.0000     -19.308858      -525.4207
   2   2.0000     -14.697788      -399.9471
   3   2.0000     -10.410868      -283.2941
   4   2.0000     -10.384690      -282.5818
   5   2.0000     -10.363547      -282.0064
   6   2.0000     -10.363300      -281.9997
   7   2.0000     -10.357594      -281.8445
   8   2.0000     -10.357339      -281.8375
   9   2.0000     -10.328867      -281.0628
  10   2.0000      -1.366555       -37.1859
  11   2.0000      -1.193401       -32.4741
  12   2.0000      -1.031416       -28.0663
  13   2.0000      -0.958564       -26.0838
  14   2.0000      -0.911013       -24.7899
  15   2.0000      -0.878119       -23.8948
  16   2.0000      -0.792556       -21.5665
  17   2.0000      -0.774054       -21.0631
  18   2.0000      -0.725747       -19.7486
  19   2.0000      -0.690464       -18.7885
  20   2.0000      -0.680692       -18.5226
  21   2.0000      -0.649070       -17.6621
  22   2.0000      -0.625398       -17.0179
  23   2.0000      -0.621976       -16.9248
  24   2.0000      -0.596409       -16.2291
  25   2.0000      -0.589474       -16.0404
  26   2.0000      -0.567004       -15.4290
  27   2.0000      -0.532955       -14.5025
  28   2.0000      -0.526749       -14.3336
  29   2.0000      -0.518766       -14.1163
  30   2.0000      -0.503619       -13.7042
  31   2.0000      -0.450838       -12.2679
  32   2.0000      -0.446613       -12.1530
  33   2.0000      -0.438121       -11.9219
  34   2.0000      -0.423100       -11.5131
  35   2.0000      -0.393248       -10.7008
  36   0.0000      -0.387897       -10.5552
  37   0.0000      -0.221189        -6.0189
  38   0.0000      -0.169086        -4.6011
  39   0.0000      -0.156920        -4.2700
  40   0.0000      -0.062797        -1.7088

MULLIKEN ATOMIC CHARGES
-----------------------
   0 C :   -0.015414
   1 C :    0.019770
   2 C :    0.063304
   3 C :    0.135732
   4 C :    0.062613
   5 C :    0.019666
   6 C :    0.060800
   7 H :    0.068352
   8 H :    0.064832
   9 H :    0.095533
  10 H :    0.038480
  11 H :    0.049922
  12 H :    0.050153
  13 H :    0.038443
  14 N :    0.240537
  15 O :   -0.158931
  16 O :   -0.159488
  17 H :    0.325696
Sum of atomic charges:    1.0000000

LOEWDIN ATOMIC CHARGES
----------------------
   0 C :    0.082233
   1 C :    0.024488
   2 C :    0.030595
   3 C :    0.050887
   4 C :    0.029364
   5 C :    0.025941
   6 C :   -0.028637
   7 H :    0.058048
   8 H :    0.055194
   9 H :    0.082030
  10 H :    0.054665
  11 H :    0.061996
  12 H :    0.062034
  13 H :    0.054695
  14 N :    0.275635
  15 O :   -0.122200
  16 O :   -0.122666
  17 H :    0.325696

  Mayer bond orders larger than 0.100000
B(  0-C ,  1-C ) :   1.2470 B(  0-C ,  5-C ) :   1.2418 B(  0-C ,  6-C ) :   1.1072
B(  0-C , 17-H ) :   0.1975 B(  1-C ,  2-C ) :   1.4312 B(  1-C , 10-H ) :   0.9859
B(  2-C ,  3-C ) :   1.2836 B(  2-C , 11-H ) :   0.9871 B(  3-C ,  4-C ) :   1.2839
B(  3-C , 14-N ) :   0.8632 B(  3-C , 17-H ) :   0.2080 B(  4-C ,  5-C ) :   1.4333
B(  4-C , 12-H ) :   0.9872 B(  5-C , 13-H ) :   0.9866 B(  6-C ,  7-H ) :   0.9439
B(  6-C ,  8-H ) :   0.9482 B(  6-C ,  9-H ) :   0.9069 B( 14-N , 15-O ) :   1.5296
B( 14-N , 16-O ) :   1.5295 B( 15-O , 16-O ) :   0.2927 B( 15-O , 17-H ) :   0.1032
B( 16-O , 17-H ) :   0.1020

Dispersion correction           -0.026497316
FINAL SINGLE POINT ENERGY      -475.600708992657

DIPOLE MOMENT
-------------
                                X             Y             Z
Electronic contribution:     -1.87716      -2.98470      -4.82457
Nuclear contribution   :     -2.29220      -1.36113      -2.26049
                        -----------------------------------------
Total Dipole Moment    :     -4.16936      -4.34583      -7.08506
                        -----------------------------------------
Magnitude (a.u.)       :      9.29881
Magnitude (Debye)      :     23.63570

Dispersion correction in the Hessian             ... Starting D4

VIBRATIONAL FREQUENCIES
-----------------------

Scaling factor for frequencies =  1.000000000  (already applied!)

   0:         0.00 cm**-1
   1:         0.00 cm**-1
   2:         0.00 cm**-1
   3:         0.00 cm**-1
   4:         0.00 cm**-1
   5:         0.00 cm**-1
   6:        -4.70 cm**-1 ***imaginary mode***
   7:        -1.98 cm**-1 ***imaginary mode***
   8:         3.85 cm**-1
   9:         8.32 cm**-1
  10:        76.59 cm**-1
  11:        92.43 cm**-1
  12:       198.39 cm**-1
  13:       241.20 cm**-1
  14:       349.51 cm**-1
  15:       355.91 cm**-1
  16:       392.05 cm**-1
  17:       429.71 cm**-1
  18:       539.14 cm**-1
  19:       589.81 cm**-1
  20:       619.84 cm**-1
  21:       683.75 cm**-1
  22:       751.50 cm**-1
  23:       790.08 cm**-1
  24:       822.15 cm**-1
  25:       844.18 cm**-1
  26:       855.02 cm**-1
  27:       984.81 cm**-1
  28:       987.94 cm**-1
  29:      1005.86 cm**-1
  30:      1016.04 cm**-1
  31:      1021.85 cm**-1
  32:      1138.58 cm**-1
  33:      1144.26 cm**-1
  34:      1202.33 cm**-1
  35:      1253.12 cm**-1
  36:      1292.00 cm**-1
  37:      1351.34 cm**-1
  38:      1365.01 cm**-1
  39:      1419.39 cm**-1
  40:      1423.60 cm**-1
  41:      1438.02 cm**-1
  42:      1454.85 cm**-1
  43:      1485.68 cm**-1
  44:      1492.23 cm**-1
  45:      1602.86 cm**-1
  46:      1661.38 cm**-1
  47:      2978.21 cm**-1
  48:      3082.65 cm**-1
  49:      3143.95 cm**-1
  50:      3204.11 cm**-1
  51:      3205.27 cm**-1
  52:      3227.73 cm**-1
  53:      3228.47 cm**-1

IR SPECTRUM
-----------

 Mode   freq       eps      Int      T**2         TX        TY        TZ
       cm**-1   L/(mol*cm) km/mol    a.u.
----------------------------------------------------------------------------
  8:      3.85   0.000000    0.00  0.000000  ( 0.000000  0.000000  0.000000)
  9:      8.32   0.021356  107.92  0.801245  (-0.357645 -0.440798 -0.692122)
 10:     76.59   0.000604    3.05  0.002461  (-0.025622 -0.020228 -0.037354)
 11:     92.43   0.000099    0.50  0.000335  ( 0.013458  0.008460 -0.009062)
 12:    198.39   0.000472    2.39  0.000743  ( 0.010348 -0.023384  0.009452)
 13:    241.20   0.000725    3.66  0.000938  ( 0.028669 -0.005246 -0.009397)
 14:    349.51   0.002427   12.26  0.002167  ( 0.023504  0.021212  0.034126)
 15:    355.91   0.000202    1.02  0.000177  ( 0.009114 -0.008428 -0.004826)
 16:    392.05   0.000632    3.19  0.000503  (-0.009411 -0.012210 -0.016280)
 17:    429.71   0.000606    3.06  0.000440  (-0.007525 -0.019234  0.003694)
 18:    539.14   0.002835   14.33  0.001641  (-0.034375 -0.021436  0.000098)
 19:    589.81   0.000054    0.27  0.000028  ( 0.002719 -0.002989  0.003472)
 20:    619.84   0.009210   46.54  0.004637  ( 0.027425  0.031611  0.053717)
 21:    683.75   0.001412    7.13  0.000644  (-0.020937 -0.011375 -0.008754)
 22:    751.50   0.005561   28.10  0.002309  ( 0.028009  0.002421 -0.038973)
 23:    790.08   0.002567   12.97  0.001014  (-0.008780 -0.013751 -0.027343)
 24:    822.15   0.001383    6.99  0.000525  ( 0.010063  0.010032  0.017972)
 25:    844.18   0.039783  201.05  0.014706  ( 0.051892  0.058726  0.092546)
 26:    855.02   0.009674   48.89  0.003531  ( 0.001950  0.009867  0.058564)
 27:    984.81   0.007184   36.30  0.002276  (-0.028178 -0.029466 -0.024783)
 28:    987.94   0.030450  153.88  0.009618  ( 0.059070  0.051760  0.058737)
 29:   1005.86   0.000044    0.22  0.000014  ( 0.002382 -0.000897 -0.002665)
 30:   1016.04   0.001381    6.98  0.000424  ( 0.008962  0.010271  0.015442)
 31:   1021.85   0.012570   63.52  0.003839  (-0.034352 -0.036829 -0.036089)
 32:   1138.58   0.002045   10.33  0.000560  ( 0.013133 -0.015574  0.012061)
 33:   1144.26   0.043450  219.58  0.011850  (-0.046362 -0.051904 -0.083704)
 34:   1202.33   0.043153  218.08  0.011200  ( 0.045110  0.050879  0.081097)
 35:   1253.12   0.082591  417.38  0.020568  (-0.062131 -0.069120 -0.109223)
 36:   1292.00   0.000415    2.10  0.000100  ( 0.000406  0.008674  0.004977)
 37:   1351.34   0.075029  379.17  0.017326  (-0.069490 -0.062971 -0.092370)
 38:   1365.01   0.004167   21.06  0.000953  (-0.002641  0.029545  0.008528)
 39:   1419.39   0.000353    1.78  0.000078  ( 0.007217 -0.003878  0.003227)
 40:   1423.60   0.002933   14.82  0.000643  (-0.012510 -0.011633 -0.018740)
 41:   1438.02   0.011351   57.37  0.002463  ( 0.020533 -0.042958  0.014012)
 42:   1454.85   0.021323  107.76  0.004574  (-0.041108 -0.032706 -0.042594)
 43:   1485.68   0.001553    7.85  0.000326  (-0.016297  0.007010 -0.003374)
 44:   1492.23   0.050500  255.21  0.010561  ( 0.038480  0.049463  0.081447)
 45:   1602.86   0.026764  135.25  0.005211  (-0.001668  0.061801 -0.037264)
 46:   1661.38   0.367767  1858.55  0.069079  ( 0.110619  0.125508  0.202708)
 47:   2978.21   0.131768  665.90  0.013807  ( 0.052857  0.058028  0.087440)
 48:   3082.65   0.001418    7.17  0.000144  (-0.006664 -0.007050 -0.007033)
 49:   3143.95   0.000669    3.38  0.000066  ( 0.003041  0.004172  0.006307)
 50:   3204.11   0.000521    2.63  0.000051  (-0.002200 -0.004209 -0.005307)
 51:   3205.27   0.000625    3.16  0.000061  (-0.004223 -0.002854 -0.005904)
 52:   3227.73   0.002524   12.75  0.000244  ( 0.007974 -0.013304  0.001851)
 53:   3228.47   0.001282    6.48  0.000124  (-0.006822  0.007223 -0.005025)

--------------------------
THERMOCHEMISTRY AT 298.15K
--------------------------

Temperature         ... 298.15 K
Pressure            ... 1.00 atm
Total Mass          ... 138.15 AMU

Throughout the following assumptions are being made:
  (1) The electronic state is orbitally nondegenerate
  (2) There are no thermally accessible electronically excited states
  (3) Hindered rotations indicated by low frequency modes are not
      treated as such but are treated as vibrations and this may
      cause some error
  (4) All equations used are the standard statistical mechanics
      equations for an ideal gas
  (5) All vibrations are strictly harmonic

freq.       3.85  E(vib)   ...       0.59
freq.       8.32  E(vib)   ...       0.58
freq.      76.59  E(vib)   ...       0.49
freq.      92.43  E(vib)   ...       0.47
freq.     198.39  E(vib)   ...       0.35
freq.     241.20  E(vib)   ...       0.31
freq.     349.51  E(vib)   ...       0.23
freq.     355.91  E(vib)   ...       0.22
freq.     392.05  E(vib)   ...       0.20
freq.     429.71  E(vib)   ...       0.18
freq.     539.14  E(vib)   ...       0.12
freq.     589.81  E(vib)   ...       0.10
freq.     619.84  E(vib)   ...       0.09
freq.     683.75  E(vib)   ...       0.07
freq.     751.50  E(vib)   ...       0.06
freq.     790.08  E(vib)   ...       0.05
freq.     822.15  E(vib)   ...       0.05
freq.     844.18  E(vib)   ...       0.04
freq.     855.02  E(vib)   ...       0.04
freq.     984.81  E(vib)   ...       0.02
freq.     987.94  E(vib)   ...       0.02
freq.    1005.86  E(vib)   ...       0.02
freq.    1016.04  E(vib)   ...       0.02
freq.    1021.85  E(vib)   ...       0.02
freq.    1138.58  E(vib)   ...       0.01
freq.    1144.26  E(vib)   ...       0.01
freq.    1202.33  E(vib)   ...       0.01
freq.    1253.12  E(vib)   ...       0.01
freq.    1292.00  E(vib)   ...       0.01
freq.    1351.34  E(vib)   ...       0.01
freq.    1365.01  E(vib)   ...       0.01
freq.    1419.39  E(vib)   ...       0.00
freq.    1423.60  E(vib)   ...       0.00
freq.    1438.02  E(vib)   ...       0.00
freq.    1454.85  E(vib)   ...       0.00
freq.    1485.68  E(vib)   ...       0.00
freq.    1492.23  E(vib)   ...       0.00
freq.    1602.86  E(vib)   ...       0.00
freq.    1661.38  E(vib)   ...       0.00
freq.    2978.21  E(vib)   ...       0.00
freq.    3082.65  E(vib)   ...       0.00
freq.    3143.95  E(vib)   ...       0.00
freq.    3204.11  E(vib)   ...       0.00
freq.    3205.27  E(vib)   ...       0.00
freq.    3227.73  E(vib)   ...       0.00
freq.    3228.47  E(vib)   ...       0.00

------------
INNER ENERGY
------------

The inner energy is: U= E(el) + E(ZPE) + E(vib) + E(rot) + E(trans)
    E(el)   - is the total energy from the electronic structure calculation
              = E(kin-el) + E(nuc-el) + E(el-el) + E(nuc-nuc)
    E(ZPE)  - the the zero temperature vibrational energy from the frequency calculation
    E(vib)  - the the finite temperature correction to E(ZPE) due to population
              of excited vibrational states
    E(rot)  - is the rotational thermal energy
    E(trans)- is the translational thermal energy

Summary of contributions to the inner energy U:
Electronic energy                ...   -475.60070899 Eh
Zero point energy                ...      0.12861381 Eh      80.71 kcal/mol
Thermal vibrational correction   ...      0.00710288 Eh       4.46 kcal/mol
Thermal rotational correction    ...      0.00141627 Eh       0.89 kcal/mol
Thermal translational correction ...      0.00141627 Eh       0.89 kcal/mol
-----------------------------------------------------------------------
Total thermal energy                   -475.46215976 Eh

Summary of corrections to the electronic energy:
(perhaps to be used in another calculation)
Total thermal correction                  0.00993542 Eh       6.23 kcal/mol
Non-thermal (ZPE) correction              0.12861381 Eh      80.71 kcal/mol
-----------------------------------------------------------------------
Total correction                          0.13854923 Eh      86.94 kcal/mol

--------
ENTHALPY
--------

The enthalpy is H = U + kB*T
                kB is Boltzmann's constant
Total free energy                 ...   -475.46215976 Eh
Thermal Enthalpy correction       ...      0.00094421 Eh       0.59 kcal/mol
-----------------------------------------------------------------------
Total Enthalpy                    ...   -475.46121555 Eh

Note: Only C1 symmetry has been detected, increase convergence thresholds
      if your molecule has a higher symmetry. Symmetry factor of 1.0 is
      used for the rotational entropy correction.

Note: Rotational entropy computed according to Herzberg
Infrared and Raman Spectra, Chapter V,1, Van Nostrand Reinhold, 1945
Point Group:  C1, Symmetry Number:   1
Rotational constants in cm-1:     0.125746     0.016698     0.015076

Vibrational entropy computed according to the QRRHO of S. Grimme
Chem.Eur.J. 2012 18 9955

-------
ENTROPY
-------

The entropy contributions are T*S = T*(S(el)+S(vib)+S(rot)+S(trans))
     S(el)   - electronic entropy
     S(vib)  - vibrational entropy
     S(rot)  - rotational entropy
     S(trans)- translational entropy
The entropies will be listed as multiplied by the temperature to get
units of energy

Electronic entropy                ...      0.00000000 Eh      0.00 kcal/mol
Vibrational entropy               ...      0.01410387 Eh      8.85 kcal/mol
Rotational entropy                ...      0.01440197 Eh      9.04 kcal/mol
Translational entropy             ...      0.01932890 Eh     12.13 kcal/mol
-----------------------------------------------------------------------
Final entropy term                ...      0.04783474 Eh     30.02 kcal/mol

In case the symmetry of your molecule has not been determined correctly
or in case you have a reason to use a different symmetry number we print
out the resulting rotational entropy values for sn=1,12 :
 --------------------------------------------------------
|  sn= 1 | S(rot)=       0.01440197 Eh      9.04 kcal/mol|
|  sn= 2 | S(rot)=       0.01374751 Eh      8.63 kcal/mol|
|  sn= 3 | S(rot)=       0.01336468 Eh      8.39 kcal/mol|
|  sn= 4 | S(rot)=       0.01309306 Eh      8.22 kcal/mol|
|  sn= 5 | S(rot)=       0.01288237 Eh      8.08 kcal/mol|
|  sn= 6 | S(rot)=       0.01271022 Eh      7.98 kcal/mol|
|  sn= 7 | S(rot)=       0.01256468 Eh      7.88 kcal/mol|
|  sn= 8 | S(rot)=       0.01243860 Eh      7.81 kcal/mol|
|  sn= 9 | S(rot)=       0.01232739 Eh      7.74 kcal/mol|
|  sn=10 | S(rot)=       0.01222791 Eh      7.67 kcal/mol|
|  sn=11 | S(rot)=       0.01213792 Eh      7.62 kcal/mol|
|  sn=12 | S(rot)=       0.01205577 Eh      7.57 kcal/mol|
 --------------------------------------------------------

-------------------
GIBBS FREE ENERGY

                             ****ORCA TERMINATED NORMALLY****
TOTAL RUN TIME: 0 days 7 hours 7 minutes 57 seconds 804 msec
