                         Program Version 5.0.4 -  RELEASE  -
|  1> !BP86 cc-pVTZ defgrid3
|  2>
|  3> * xyz 0 1
|  4>   C   -1.05354596271083      1.42135243576665     -0.73549220185663
|  5>   C   -1.76717691585433      0.81968690597605      0.22444324622836
|  6>   C   -0.91604797271676     -0.21504620254596      0.92339098529051
|  7>   C   -3.18658916550982      1.06760146729181      0.62043996179919
|  8>   H   -3.65177058285626      1.84890976029203      0.00161745831760
|  9>   H   -3.25259686050292      1.37975261146372      1.67787971117939
| 10>   H   -3.79133874736600      0.14808169577577      0.52701048897989
| 11>   C   0.35705795446457      0.89749440001034     -0.79501799653405
| 12>   C   1.41588701773226      2.02006837281249     -0.63884945754235
| 13>   C   2.80881703463114      1.41251132710473     -0.63583732910559
| 14>   H   1.20967085252781      2.57392305919014      0.29049098629325
| 15>   H   1.34740263144453      2.70902449090648     -1.49554455642121
| 16>   C   3.37622781232091      1.19049215945855      0.75754145591531
| 17>   N   0.41123761481178     -0.07210345422347      0.31381604773552
| 18>   H   0.56307393880421      0.40954505459904     -1.76931562713006
| 19>   H   -1.34153580290440     -1.23063666814028      0.78694765203342
| 20>   H   -0.89469173408622     -0.03961126720342      2.01833030977159
| 21>   H   0.80199521648994     -0.96262165511348      0.02364954504097
| 22>   O   3.36130687691708      1.06897825383177     -1.65256833709520
| 23>   Cl  4.92950915132907      0.31373216343513      0.77168111918747
| 24>   H   2.62051255229742      0.61607693324621      1.31840686987001
| 25>   H   3.50773757250952      2.16097047317234      1.26235402519175
| 26>   H   -1.41589248177270      2.21265768289335     -1.39571435714913
| 27> *
| 28>
| 29>                          ****END OF INPUT****

CARTESIAN COORDINATES (ANGSTROEM)
---------------------------------
  C     -1.053546    1.421352   -0.735492
  C     -1.767177    0.819687    0.224443
  C     -0.916048   -0.215046    0.923391
  C     -3.186589    1.067601    0.620440
  H     -3.651771    1.848910    0.001617
  H     -3.252597    1.379753    1.677880
  H     -3.791339    0.148082    0.527010
  C      0.357058    0.897494   -0.795018
  C      1.415887    2.020068   -0.638849
  C      2.808817    1.412511   -0.635837
  H      1.209671    2.573923    0.290491
  H      1.347403    2.709024   -1.495545
  C      3.376228    1.190492    0.757541
  N      0.411238   -0.072103    0.313816
  H      0.563074    0.409545   -1.769316
  H     -1.341536   -1.230637    0.786948
  H     -0.894692   -0.039611    2.018330
  H      0.801995   -0.962622    0.023650
  O      3.361307    1.068978   -1.652568
  Cl     4.929509    0.313732    0.771681
  H      2.620513    0.616077    1.318407
  H      3.507738    2.160970    1.262354
  H     -1.415892    2.212658   -1.395714

 Total Charge           Charge          ....    0
 Multiplicity           Mult            ....    1
 Number of Electrons    NEL             ....   92
 Basis Dimension        Dim             ....  502

ORBITAL ENERGIES
----------------

  NO   OCC          E(Eh)            E(eV)
   0   2.0000    -100.741162     -2741.3064
   1   2.0000     -18.765162      -510.6260
   2   2.0000     -14.004671      -381.0865
   3   2.0000      -9.990534      -271.8563
   4   2.0000      -9.959374      -271.0083
   5   2.0000      -9.952362      -270.8176
   6   2.0000      -9.939576      -270.4696
   7   2.0000      -9.921911      -269.9889
   8   2.0000      -9.914380      -269.7840
   9   2.0000      -9.913096      -269.7491
  10   2.0000      -9.906448      -269.5682
  11   2.0000      -9.175650      -249.6821
  12   2.0000      -7.000706      -190.4989
  13   2.0000      -6.989956      -190.2064
  14   2.0000      -6.989866      -190.2039
  15   2.0000      -0.965755       -26.2795
  16   2.0000      -0.861220       -23.4350
  17   2.0000      -0.779744       -21.2179
  18   2.0000      -0.732582       -19.9346
  19   2.0000      -0.720372       -19.6023
  20   2.0000      -0.664878       -18.0922
  21   2.0000      -0.635090       -17.2817
  22   2.0000      -0.614714       -16.7272
  23   2.0000      -0.538625       -14.6567
  24   2.0000      -0.502112       -13.6632
  25   2.0000      -0.482775       -13.1370
  26   2.0000      -0.472972       -12.8702
  27   2.0000      -0.441644       -12.0177
  28   2.0000      -0.428442       -11.6585
  29   2.0000      -0.414843       -11.2884
  30   2.0000      -0.410335       -11.1658
  31   2.0000      -0.393236       -10.7005
  32   2.0000      -0.387359       -10.5406
  33   2.0000      -0.375727       -10.2241
  34   2.0000      -0.364794        -9.9266
  35   2.0000      -0.361560        -9.8385
  36   2.0000      -0.359275        -9.7764
  37   2.0000      -0.336930        -9.1683
  38   2.0000      -0.331719        -9.0265
  39   2.0000      -0.322664        -8.7801
  40   2.0000      -0.313700        -8.5362
  41   2.0000      -0.259547        -7.0626
  42   2.0000      -0.257879        -7.0172
  43   2.0000      -0.236414        -6.4332
  44   2.0000      -0.214938        -5.8487
  45   2.0000      -0.198682        -5.4064
  46   0.0000      -0.065321        -1.7775
  47   0.0000      -0.032054        -0.8722
  48   0.0000      -0.006113        -0.1663
  49   0.0000       0.007012         0.1908
  50   0.0000       0.021332         0.5805

MULLIKEN ATOMIC CHARGES
-----------------------
   0 C :   -0.210430
   1 C :    0.049725
   2 C :   -0.082373
   3 C :   -0.292498
   4 H :    0.105168
   5 H :    0.104591
   6 H :    0.103039
   7 C :    0.022769
   8 C :   -0.186801
   9 C :    0.173748
  10 H :    0.099369
  11 H :    0.114662
  12 C :   -0.150248
  13 N :   -0.242670
  14 H :    0.108456
  15 H :    0.081966
  16 H :    0.076629
  17 H :    0.131291
  18 O :   -0.231914
  19 Cl:   -0.140686
  20 H :    0.122021
  21 H :    0.130370
  22 H :    0.113815
Sum of atomic charges:    0.0000000

LOEWDIN ATOMIC CHARGES
----------------------
   0 C :    0.035556
   1 C :   -0.061234
   2 C :   -0.015618
   3 C :    0.096415
   4 H :   -0.011580
   5 H :   -0.010825
   6 H :   -0.011281
   7 C :   -0.094826
   8 C :    0.044666
   9 C :   -0.334082
  10 H :   -0.016067
  11 H :   -0.007985
  12 C :   -0.165829
  13 N :    0.358297
  14 H :   -0.018474
  15 H :   -0.024953
  16 H :   -0.024269
  17 H :   -0.108138
  18 O :    0.234965
  19 Cl:    0.226870
  20 H :   -0.035083
  21 H :   -0.023472
  22 H :   -0.033051

  Mayer bond orders larger than 0.100000
B(  0-C ,  1-C ) :   1.7821 B(  0-C ,  7-C ) :   0.9869 B(  0-C , 22-H ) :   0.9515
B(  1-C ,  2-C ) :   0.9682 B(  1-C ,  3-C ) :   0.9770 B(  2-C , 13-N ) :   1.0241
B(  2-C , 15-H ) :   0.9459 B(  2-C , 16-H ) :   0.9386 B(  3-C ,  4-H ) :   0.9707
B(  3-C ,  5-H ) :   0.9509 B(  3-C ,  6-H ) :   0.9508 B(  7-C ,  8-C ) :   0.8880
B(  7-C , 13-N ) :   0.9881 B(  7-C , 14-H ) :   0.9521 B(  8-C ,  9-C ) :   0.9239
B(  8-C , 10-H ) :   0.9506 B(  8-C , 11-H ) :   0.9467 B(  9-C , 12-C ) :   0.8873
B(  9-C , 18-O ) :   2.2178 B( 12-C , 19-Cl) :   1.0416 B( 12-C , 20-H ) :   0.9112
B( 12-C , 21-H ) :   0.9379 B( 13-N , 17-H ) :   0.9806

FINAL SINGLE POINT ENERGY      -902.445810657851

DIPOLE MOMENT
-------------
                                X             Y             Z
Electronic contribution:     22.57667      -2.27546      -1.12245
Nuclear contribution   :    -24.46675       2.52936       1.68763
                        -----------------------------------------
Total Dipole Moment    :     -1.89008       0.25390       0.56518
                        -----------------------------------------
Magnitude (a.u.)       :      1.98904
Magnitude (Debye)      :      5.05574

Rotational constants in cm-1:     0.078975     0.013377     0.012208
Rotational constants in MHz :  2367.608052   401.025928   365.983271

                             ****ORCA TERMINATED NORMALLY****
TOTAL RUN TIME: 0 days 0 hours 4 minutes 22 seconds 759 msec
