                         Program Version 5.0.4 -  RELEASE  -
|  1> !UHF cc-pVTZ
|  2>
|  3> * xyz 0 1
|  4>   C   -1.05354596271083      1.42135243576665     -0.73549220185663
|  5>   C   -1.76717691585433      0.81968690597605      0.22444324622836
|  6>   C   -0.91604797271676     -0.21504620254596      0.92339098529051
|  7>   C   -3.18658916550982      1.06760146729181      0.62043996179919
|  8>   H   -3.65177058285626      1.84890976029203      0.00161745831760
|  9>   H   -3.25259686050292      1.37975261146372      1.67787971117939
| 10>   H   -3.79133874736600      0.14808169577577      0.52701048897989
| 11>   C   0.35705795446457      0.89749440001034     -0.79501799653405
| 12>   C   1.41588701773226      2.02006837281249     -0.63884945754235
| 13>   C   2.80881703463114      1.41251132710473     -0.63583732910559
| 14>   H   1.20967085252781      2.57392305919014      0.29049098629325
| 15>   H   1.34740263144453      2.70902449090648     -1.49554455642121
| 16>   C   3.37622781232091      1.19049215945855      0.75754145591531
| 17>   N   0.41123761481178     -0.07210345422347      0.31381604773552
| 18>   H   0.56307393880421      0.40954505459904     -1.76931562713006
| 19>   H   -1.34153580290440     -1.23063666814028      0.78694765203342
| 20>   H   -0.89469173408622     -0.03961126720342      2.01833030977159
| 21>   H   0.80199521648994     -0.96262165511348      0.02364954504097
| 22>   O   3.36130687691708      1.06897825383177     -1.65256833709520
| 23>   Cl  4.92950915132907      0.31373216343513      0.77168111918747
| 24>   H   2.62051255229742      0.61607693324621      1.31840686987001
| 25>   H   3.50773757250952      2.16097047317234      1.26235402519175
| 26>   H   -1.41589248177270      2.21265768289335     -1.39571435714913
| 27> **                         ****END OF INPUT****

CARTESIAN COORDINATES (ANGSTROEM)
---------------------------------
  C     -1.053546    1.421352   -0.735492
  C     -1.767177    0.819687    0.224443
  C     -0.916048   -0.215046    0.923391
  C     -3.186589    1.067601    0.620440
  H     -3.651771    1.848910    0.001617
  H     -3.252597    1.379753    1.677880
  H     -3.791339    0.148082    0.527010
  C      0.357058    0.897494   -0.795018
  C      1.415887    2.020068   -0.638849
  C      2.808817    1.412511   -0.635837
  H      1.209671    2.573923    0.290491
  H      1.347403    2.709024   -1.495545
  C      3.376228    1.190492    0.757541
  N      0.411238   -0.072103    0.313816
  H      0.563074    0.409545   -1.769316
  H     -1.341536   -1.230637    0.786948
  H     -0.894692   -0.039611    2.018330
  H      0.801995   -0.962622    0.023650
  O      3.361307    1.068978   -1.652568
  Cl     4.929509    0.313732    0.771681
  H      2.620513    0.616077    1.318407
  H      3.507738    2.160970    1.262354
  H     -1.415892    2.212658   -1.395714

 Total Charge           Charge          ....    0
 Multiplicity           Mult            ....    1
 Number of Electrons    NEL             ....   92
 Basis Dimension        Dim             ....  502

ORBITAL ENERGIES
----------------
                 SPIN UP ORBITALS
  NO   OCC          E(Eh)            E(eV)
   0   1.0000    -104.819415     -2852.2813
   1   1.0000     -20.550606      -559.2104
   2   1.0000     -15.555672      -423.2913
   3   1.0000     -11.337736      -308.5155
   4   1.0000     -11.298279      -307.4418
   5   1.0000     -11.280206      -306.9500
   6   1.0000     -11.268901      -306.6424
   7   1.0000     -11.249233      -306.1072
   8   1.0000     -11.243218      -305.9435
   9   1.0000     -11.240534      -305.8705
  10   1.0000     -11.232762      -305.6590
  11   1.0000     -10.544313      -286.9253
  12   1.0000      -8.011154      -217.9946
  13   1.0000      -8.009288      -217.9438
  14   1.0000      -8.009275      -217.9434
  15   1.0000      -1.394857       -37.9560
  16   1.0000      -1.241738       -33.7894
  17   1.0000      -1.129550       -30.7366
  18   1.0000      -1.077612       -29.3233
  19   1.0000      -1.057971       -28.7889
  20   1.0000      -0.981996       -26.7215
  21   1.0000      -0.941642       -25.6234
  22   1.0000      -0.914720       -24.8908
  23   1.0000      -0.808209       -21.9925
  24   1.0000      -0.745910       -20.2973
  25   1.0000      -0.732055       -19.9202
  26   1.0000      -0.702697       -19.1213
  27   1.0000      -0.662259       -18.0210
  28   1.0000      -0.652127       -17.7453
  29   1.0000      -0.630884       -17.1672
  30   1.0000      -0.622524       -16.9397
  31   1.0000      -0.597156       -16.2494
  32   1.0000      -0.591695       -16.1008
  33   1.0000      -0.573693       -15.6110
  34   1.0000      -0.552545       -15.0355
  35   1.0000      -0.549703       -14.9582
  36   1.0000      -0.542560       -14.7638
  37   1.0000      -0.519341       -14.1320
  38   1.0000      -0.514045       -13.9879
  39   1.0000      -0.503198       -13.6927
  40   1.0000      -0.486892       -13.2490
  41   1.0000      -0.441992       -12.0272
  42   1.0000      -0.431710       -11.7474
  43   1.0000      -0.411993       -11.2109
  44   1.0000      -0.393285       -10.7018
  45   1.0000      -0.345108        -9.3909
  46   0.0000       0.122637         3.3371
  47   0.0000       0.136148         3.7048
  48   0.0000       0.139280         3.7900
  49   0.0000       0.146340         3.9821
  50   0.0000       0.156894         4.2693

                 SPIN DOWN ORBITALS
  NO   OCC          E(Eh)            E(eV)
   0   1.0000    -104.819415     -2852.2813
   1   1.0000     -20.550606      -559.2104
   2   1.0000     -15.555672      -423.2913
   3   1.0000     -11.337736      -308.5155
   4   1.0000     -11.298279      -307.4418
   5   1.0000     -11.280206      -306.9500
   6   1.0000     -11.268901      -306.6424
   7   1.0000     -11.249233      -306.1072
   8   1.0000     -11.243218      -305.9435
   9   1.0000     -11.240534      -305.8705
  10   1.0000     -11.232762      -305.6590
  11   1.0000     -10.544313      -286.9253
  12   1.0000      -8.011154      -217.9946
  13   1.0000      -8.009288      -217.9438
  14   1.0000      -8.009275      -217.9434
  15   1.0000      -1.394857       -37.9560
  16   1.0000      -1.241738       -33.7894
  17   1.0000      -1.129550       -30.7366
  18   1.0000      -1.077612       -29.3233
  19   1.0000      -1.057971       -28.7889
  20   1.0000      -0.981996       -26.7215
  21   1.0000      -0.941642       -25.6234
  22   1.0000      -0.914720       -24.8908
  23   1.0000      -0.808209       -21.9925
  24   1.0000      -0.745910       -20.2973
  25   1.0000      -0.732055       -19.9202
  26   1.0000      -0.702697       -19.1213
  27   1.0000      -0.662259       -18.0210
  28   1.0000      -0.652127       -17.7453
  29   1.0000      -0.630884       -17.1672
  30   1.0000      -0.622524       -16.9397
  31   1.0000      -0.597156       -16.2494
  32   1.0000      -0.591695       -16.1008
  33   1.0000      -0.573693       -15.6110
  34   1.0000      -0.552545       -15.0355
  35   1.0000      -0.549703       -14.9582
  36   1.0000      -0.542560       -14.7638
  37   1.0000      -0.519341       -14.1320
  38   1.0000      -0.514045       -13.9879
  39   1.0000      -0.503198       -13.6927
  40   1.0000      -0.486892       -13.2490
  41   1.0000      -0.441992       -12.0272
  42   1.0000      -0.431710       -11.7474
  43   1.0000      -0.411993       -11.2109
  44   1.0000      -0.393285       -10.7018
  45   1.0000      -0.345108        -9.3909
  46   0.0000       0.122637         3.3371
  47   0.0000       0.136148         3.7048
  48   0.0000       0.139280         3.7900
  49   0.0000       0.146340         3.9821
  50   0.0000       0.156894         4.2693

MULLIKEN ATOMIC CHARGES AND SPIN POPULATIONS
--------------------------------------------
   0 C :   -0.285955    0.000000
   1 C :    0.016573    0.000000
   2 C :   -0.050208    0.000000
   3 C :   -0.258323    0.000000
   4 H :    0.103115    0.000000
   5 H :    0.096830    0.000000
   6 H :    0.095795    0.000000
   7 C :    0.070153    0.000000
   8 C :   -0.189789    0.000000
   9 C :    0.272291    0.000000
  10 H :    0.105628    0.000000
  11 H :    0.124836    0.000000
  12 C :   -0.090995    0.000000
  13 N :   -0.339721    0.000000
  14 H :    0.125341    0.000000
  15 H :    0.086365    0.000000
  16 H :    0.078463    0.000000
  17 H :    0.146032    0.000000
  18 O :   -0.347979    0.000000
  19 Cl:   -0.186880    0.000000
  20 H :    0.135261    0.000000
  21 H :    0.128504    0.000000
  22 H :    0.164664    0.000000
Sum of atomic charges         :    0.0000000

LOEWDIN ATOMIC CHARGES AND SPIN POPULATIONS
-------------------------------------------
   0 C :    0.030472    0.000000
   1 C :   -0.050759    0.000000
   2 C :    0.000123    0.000000
   3 C :    0.105728    0.000000
   4 H :   -0.014953    0.000000
   5 H :   -0.016218    0.000000
   6 H :   -0.016500    0.000000
   7 C :   -0.078958    0.000000
   8 C :    0.056223    0.000000
   9 C :   -0.267522    0.000000
  10 H :   -0.018112    0.000000
  11 H :   -0.010181    0.000000
  12 C :   -0.136998    0.000000
  13 N :    0.320816    0.000000
  14 H :   -0.019157    0.000000
  15 H :   -0.027669    0.000000
  16 H :   -0.027852    0.000000
  17 H :   -0.111117    0.000000
  18 O :    0.159329    0.000000
  19 Cl:    0.210055    0.000000
  20 H :   -0.029332    0.000000
  21 H :   -0.025547    0.000000
  22 H :   -0.031869    0.000000

  Mayer bond orders larger than 0.100000
B(  0-C ,  1-C ) :   1.8517 B(  0-C ,  7-C ) :   0.9945 B(  0-C , 22-H ) :   0.9471
B(  1-C ,  2-C ) :   0.9811 B(  1-C ,  3-C ) :   0.9569 B(  2-C , 13-N ) :   0.9970
B(  2-C , 15-H ) :   0.9793 B(  2-C , 16-H ) :   0.9743 B(  3-C ,  4-H ) :   0.9899
B(  3-C ,  5-H ) :   0.9730 B(  3-C ,  6-H ) :   0.9717 B(  7-C ,  8-C ) :   0.9319
B(  7-C , 13-N ) :   0.9609 B(  7-C , 14-H ) :   0.9804 B(  8-C ,  9-C ) :   0.9336
B(  8-C , 10-H ) :   0.9764 B(  8-C , 11-H ) :   0.9759 B(  9-C , 12-C ) :   0.9249
B(  9-C , 18-O ) :   2.1173 B( 12-C , 19-Cl) :   0.9986 B( 12-C , 20-H ) :   0.9484
B( 12-C , 21-H ) :   0.9631 B( 13-N , 17-H ) :   0.9805

FINAL SINGLE POINT ENERGY      -898.887245908805

DIPOLE MOMENT
-------------
                                X             Y             Z
Electronic contribution:     22.44562      -2.16755      -0.98728
Nuclear contribution   :    -24.46675       2.52936       1.68763
                        -----------------------------------------
Total Dipole Moment    :     -2.02113       0.36181       0.70034
                        -----------------------------------------
Magnitude (a.u.)       :      2.16941
Magnitude (Debye)      :      5.51420

Rotational constants in cm-1:     0.078975     0.013377     0.012208
Rotational constants in MHz :  2367.608052   401.025928   365.983271

                             ****ORCA TERMINATED NORMALLY****
TOTAL RUN TIME: 0 days 2 hours 7 minutes 12 seconds 826 msec
