                         Program Version 5.0.4 -  RELEASE  -
|  1> !B3LYP DEF2-TZVP OPT CPCM(CH2CL2) D4
|  2>
|  3> * xyz 0 1
|  4>    C        3.91177        1.96573       -0.06586
|  5>    C        4.38298        0.66952       -0.07748
|  6>    C        3.18693       -0.17369       -0.14942
|  7>    C        2.45006        1.87505       -0.11572
|  8>    N        2.06136        0.66097       -0.18836
|  9>    C        1.53951        3.02176        0.03782
| 10>    C        0.19336        2.97742        0.05507
| 11>    N       -0.59659        1.88453       -0.07537
| 12>    C       -1.87730        2.32744       -0.04275
| 13>    C       -0.58827        4.09532        0.25459
| 14>    C       -1.89729        3.68472        0.18438
| 15>    C       -3.00125        1.59805       -0.15307
| 16>    C       -3.07442        0.13788       -0.25784
| 17>    N       -2.05429       -0.62928       -0.24798
| 18>    C       -3.95920       -1.93715        0.00448
| 19>    C       -4.32084       -0.61669       -0.14239
| 20>    C       -0.19782       -2.97969       -0.01878
| 21>    N        0.60618       -1.89197       -0.12111
| 22>    C        1.88868       -2.33461       -0.09685
| 23>    C        1.89476       -3.71029        0.01773
| 24>    C        0.57756       -4.11582        0.07327
| 25>    C        3.13878       -1.51461       -0.10699
| 26>    C       -1.68973       -3.01088        0.04834
| 27>    C       -2.49653       -1.94744       -0.07639
| 28>    H        4.50781        2.86774        0.00363
| 29>    H        5.42251        0.37562       -0.00723
| 30>    H        2.01921        3.98765        0.16552
| 31>    H       -0.24069        5.09704        0.46025
| 32>    H       -2.77542        4.29794        0.32852
| 33>    H       -3.95630        2.11192       -0.09379
| 34>    H       -4.64006       -2.76109        0.16923
| 35>    H       -5.32563       -0.21303       -0.11937
| 36>    H        2.76452       -4.34835        0.09087
| 37>    H        0.21965       -5.12882        0.19602
| 38>    H        4.08350       -2.04631       -0.03103
| 39>    H       -2.16104       -3.97385        0.22279
| 40>   Fe        0.00977       -0.00332       -0.09825
| 41> **                         ****END OF INPUT****
 Total Charge           Charge          ....    0
 Multiplicity           Mult            ....    1
 Number of Electrons    NEL             ....  186
Dispersion correction           -0.106481207
FINAL SINGLE POINT ENERGY     -2251.879174180511
Dispersion correction            ... Starting D4
Dispersion correction           -0.106826996
FINAL SINGLE POINT ENERGY     -2251.919882126543
Dispersion correction            ... Starting D4
Dispersion correction           -0.107567135
FINAL SINGLE POINT ENERGY     -2251.938203117612
Dispersion correction            ... Starting D4
FINAL SINGLE POINT ENERGY     -2251.943279212432
FINAL SINGLE POINT ENERGY     -2251.945387599080
FINAL SINGLE POINT ENERGY     -2251.945934186956
FINAL SINGLE POINT ENERGY     -2251.946081268260
FINAL SINGLE POINT ENERGY     -2251.946122299344
FINAL SINGLE POINT ENERGY     -2251.946153341607
Dispersion correction            ... Starting D4
Dispersion correction           -0.108009829
FINAL SINGLE POINT ENERGY     -2251.946160574187
Dispersion correction            ... Starting D4
Dispersion correction           -0.108012346
FINAL SINGLE POINT ENERGY     -2251.946164212932
Dispersion correction            ... Starting D4
                    ***********************HURRAY********************

CARTESIAN COORDINATES (ANGSTROEM)
---------------------------------
  C      3.805639    1.918435    0.015543
  C      4.213430    0.625144   -0.004393
  C      3.024991   -0.184994   -0.011865
  C      2.367208    1.900509    0.019897
  N      1.904840    0.608516    0.003739
  C      1.575293    3.033021    0.036411
  C      0.193270    3.032929    0.038121
  N     -0.600580    1.913045    0.024918
  C     -1.892645    2.375582    0.030098
  C     -0.616786    4.221439    0.051930
  C     -1.910240    3.813715    0.046941
  C     -3.024868    1.583208    0.021592
  C     -3.024279    0.201335    0.007862
  N     -1.904436   -0.592529    0.000131
  C     -3.805357   -1.902272   -0.009735
  C     -4.213067   -0.608667    0.001719
  C     -0.192979   -3.016753   -0.029791
  N      0.600866   -1.896662   -0.023127
  C      1.892940   -2.359245   -0.035104
  C      1.910540   -3.797559   -0.050395
  C      0.617072   -4.205340   -0.046586
  C      3.025254   -1.566881   -0.030911
  C     -1.575018   -3.017099   -0.024039
  C     -2.367164   -1.884633   -0.011217
  H      4.406007    2.814889    0.026232
  H      5.219365    0.234918   -0.013457
  H      2.075661    3.992533    0.047841
  H     -0.226494    5.227663    0.063568
  H     -2.806483    4.414721    0.053406
  H     -3.984705    2.082889    0.026429
  H     -4.405652   -2.798700   -0.016624
  H     -5.218875   -0.218095    0.005723
  H      2.806817   -4.398272   -0.062378
  H      0.226627   -5.211378   -0.054827
  H      3.984887   -2.066836   -0.041666
  H     -2.075126   -3.976835   -0.030532
  Fe     0.000279    0.007670    0.001024

 Multiplicity           Mult            ....    1
 Number of Electrons    NEL             ....  186
 Basis Dimension        Dim             ....  861

ORBITAL ENERGIES
----------------

  NO   OCC          E(Eh)            E(eV)
   0   2.0000    -256.064725     -6967.8754
   1   2.0000     -30.003762      -816.4439
   2   2.0000     -25.869087      -703.9336
   3   2.0000     -25.863081      -703.7702
   4   2.0000     -25.863079      -703.7702
   5   2.0000     -14.321827      -389.7167
   6   2.0000     -14.321807      -389.7162
   7   2.0000     -14.321802      -389.7161
   8   2.0000     -14.321770      -389.7152
   9   2.0000     -10.204457      -277.6774
  10   2.0000     -10.204436      -277.6768
  11   2.0000     -10.204430      -277.6767
  12   2.0000     -10.204421      -277.6764
  13   2.0000     -10.204409      -277.6761
  14   2.0000     -10.204388      -277.6755
  15   2.0000     -10.204383      -277.6754
  16   2.0000     -10.204372      -277.6751
  17   2.0000     -10.177383      -276.9407
  18   2.0000     -10.177364      -276.9402
  19   2.0000     -10.177353      -276.9399
  20   2.0000     -10.177344      -276.9396
  21   2.0000     -10.170676      -276.7582
  22   2.0000     -10.170655      -276.7576
  23   2.0000     -10.170650      -276.7575
  24   2.0000     -10.170642      -276.7572
  25   2.0000     -10.169927      -276.7378
  26   2.0000     -10.169905      -276.7372
  27   2.0000     -10.169901      -276.7371
  28   2.0000     -10.169894      -276.7369
  29   2.0000      -3.424301       -93.1800
  30   2.0000      -2.207957       -60.0816
  31   2.0000      -2.189204       -59.5713
  32   2.0000      -2.189201       -59.5712
  33   2.0000      -0.968369       -26.3507
  34   2.0000      -0.958543       -26.0833
  35   2.0000      -0.958532       -26.0830
  36   2.0000      -0.948731       -25.8163
  37   2.0000      -0.819962       -22.3123
  38   2.0000      -0.792329       -21.5604
  39   2.0000      -0.792314       -21.5600
  40   2.0000      -0.774966       -21.0879
  41   2.0000      -0.768545       -20.9132
  42   2.0000      -0.768542       -20.9131
  43   2.0000      -0.765316       -20.8253
  44   2.0000      -0.742888       -20.2150
  45   2.0000      -0.715958       -19.4822
  46   2.0000      -0.654939       -17.8218
  47   2.0000      -0.654933       -17.8216
  48   2.0000      -0.596503       -16.2317
  49   2.0000      -0.578590       -15.7442
  50   2.0000      -0.572741       -15.5851
  51   2.0000      -0.572701       -15.5840
  52   2.0000      -0.570283       -15.5182
  53   2.0000      -0.546964       -14.8836
  54   2.0000      -0.543004       -14.7759
  55   2.0000      -0.522393       -14.2150
  56   2.0000      -0.522385       -14.2148
  57   2.0000      -0.513554       -13.9745
  58   2.0000      -0.495709       -13.4889
  59   2.0000      -0.495704       -13.4888
  60   2.0000      -0.450459       -12.2576
  61   2.0000      -0.436983       -11.8909
  62   2.0000      -0.434950       -11.8356
  63   2.0000      -0.423974       -11.5369
  64   2.0000      -0.423954       -11.5364
  65   2.0000      -0.421975       -11.4825
  66   2.0000      -0.421963       -11.4822
  67   2.0000      -0.421594       -11.4722
  68   2.0000      -0.408126       -11.1057
  69   2.0000      -0.396270       -10.7831
  70   2.0000      -0.393577       -10.7098
  71   2.0000      -0.393553       -10.7091
  72   2.0000      -0.389812       -10.6073
  73   2.0000      -0.382442       -10.4068
  74   2.0000      -0.378564       -10.3012
  75   2.0000      -0.373275       -10.1573
  76   2.0000      -0.373242       -10.1564
  77   2.0000      -0.363905        -9.9023
  78   2.0000      -0.338552        -9.2125
  79   2.0000      -0.331319        -9.0156
  80   2.0000      -0.320953        -8.7336
  81   2.0000      -0.320944        -8.7333
  82   2.0000      -0.287228        -7.8159
  83   2.0000      -0.287224        -7.8158
  84   2.0000      -0.282617        -7.6904
  85   2.0000      -0.282601        -7.6900
  86   2.0000      -0.268478        -7.3057
  87   2.0000      -0.253395        -6.8952
  88   2.0000      -0.231355        -6.2955
  89   2.0000      -0.221924        -6.0389
  90   2.0000      -0.221895        -6.0381
  91   2.0000      -0.202719        -5.5163
  92   2.0000      -0.200579        -5.4580
  93   0.0000      -0.106784        -2.9058
  94   0.0000      -0.085154        -2.3172
  95   0.0000      -0.085153        -2.3171
  96   0.0000      -0.026054        -0.7090
  97   0.0000       0.004693         0.1277

MULLIKEN ATOMIC CHARGES
-----------------------
   0 C :   -0.221170
   1 C :   -0.220942
   2 C :    0.262811
   3 C :    0.261693
   4 N :   -0.181184
   5 C :   -0.369576
   6 C :    0.262463
   7 N :   -0.181646
   8 C :    0.262064
   9 C :   -0.220700
  10 C :   -0.221382
  11 C :   -0.369770
  12 C :    0.262009
  13 N :   -0.181178
  14 C :   -0.221888
  15 C :   -0.220039
  16 C :    0.262251
  17 N :   -0.181176
  18 C :    0.261898
  19 C :   -0.221330
  20 C :   -0.220449
  21 C :   -0.369965
  22 C :   -0.369543
  23 C :    0.262186
  24 H :    0.141456
  25 H :    0.141542
  26 H :    0.147110
  27 H :    0.141565
  28 H :    0.141390
  29 H :    0.147046
  30 H :    0.141372
  31 H :    0.141651
  32 H :    0.141426
  33 H :    0.141591
  34 H :    0.147055
  35 H :    0.147012
  36 Fe:    0.154347
Sum of atomic charges:   -0.0000000

LOEWDIN ATOMIC CHARGES
----------------------
   0 C :   -0.115009
   1 C :   -0.115097
   2 C :   -0.199582
   3 C :   -0.199800
   4 N :    0.198463
   5 C :   -0.088051
   6 C :   -0.199662
   7 N :    0.198537
   8 C :   -0.199898
   9 C :   -0.115107
  10 C :   -0.115117
  11 C :   -0.088047
  12 C :   -0.199636
  13 N :    0.198430
  14 C :   -0.115073
  15 C :   -0.114987
  16 C :   -0.199529
  17 N :    0.198427
  18 C :   -0.199771
  19 C :   -0.115075
  20 C :   -0.115070
  21 C :   -0.088051
  22 C :   -0.088036
  23 C :   -0.199780
  24 H :    0.146422
  25 H :    0.146468
  26 H :    0.166619
  27 H :    0.146538
  28 H :    0.146464
  29 H :    0.166613
  30 H :    0.146403
  31 H :    0.146436
  32 H :    0.146439
  33 H :    0.146506
  34 H :    0.166597
  35 H :    0.166623
  36 Fe:    0.238395

  Mayer bond orders larger than 0.100000
B(  0-C ,  1-C ) :   1.6023 B(  0-C ,  3-C ) :   1.1067 B(  0-C , 24-H ) :   0.9977
B(  1-C ,  2-C ) :   1.1073 B(  1-C , 25-H ) :   0.9977 B(  2-C ,  4-N ) :   1.2240
B(  2-C , 21-C ) :   1.2992 B(  3-C ,  4-N ) :   1.2252 B(  3-C ,  5-C ) :   1.3009
B(  4-N , 36-Fe) :   0.6364 B(  5-C ,  6-C ) :   1.2993 B(  5-C , 26-H ) :   0.9949
B(  6-C ,  7-N ) :   1.2241 B(  6-C ,  9-C ) :   1.1074 B(  7-N ,  8-C ) :   1.2252
B(  7-N , 36-Fe) :   0.6359 B(  8-C , 10-C ) :   1.1067 B(  8-C , 11-C ) :   1.3006
B(  9-C , 10-C ) :   1.6021 B(  9-C , 27-H ) :   0.9976 B( 10-C , 28-H ) :   0.9980
B( 11-C , 12-C ) :   1.2994 B( 11-C , 29-H ) :   0.9950 B( 12-C , 13-N ) :   1.2243
B( 12-C , 15-C ) :   1.1077 B( 13-N , 23-C ) :   1.2250 B( 13-N , 36-Fe) :   0.6364
B( 14-C , 15-C ) :   1.6022 B( 14-C , 23-C ) :   1.1068 B( 14-C , 30-H ) :   0.9980
B( 15-C , 31-H ) :   0.9974 B( 16-C , 17-N ) :   1.2239 B( 16-C , 20-C ) :   1.1077
B( 16-C , 22-C ) :   1.2993 B( 17-N , 18-C ) :   1.2251 B( 17-N , 36-Fe) :   0.6365
B( 18-C , 19-C ) :   1.1066 B( 18-C , 21-C ) :   1.3007 B( 19-C , 20-C ) :   1.6022
B( 19-C , 32-H ) :   0.9979 B( 20-C , 33-H ) :   0.9975 B( 21-C , 34-H ) :   0.9951
B( 22-C , 23-C ) :   1.3005 B( 22-C , 35-H ) :   0.9950

Dispersion correction           -0.108013479
FINAL SINGLE POINT ENERGY     -2251.946165793107

DIPOLE MOMENT
-------------
                                X             Y             Z
Electronic contribution:      0.00110      -0.00311       0.00478
Nuclear contribution   :     -0.00049       0.00236      -0.00719
                        -----------------------------------------
Total Dipole Moment    :      0.00061      -0.00075      -0.00241
                        -----------------------------------------
Magnitude (a.u.)       :      0.00260
Magnitude (Debye)      :      0.00660

Rotational constants in cm-1:     0.009091     0.009089     0.004545
Rotational constants in MHz :   272.540538   272.482619   136.256039

                             ****ORCA TERMINATED NORMALLY****
TOTAL RUN TIME: 1 days 4 hours 43 minutes 56 seconds 153 msec
