                         Program Version 5.0.4 -  RELEASE  -
|  1> !B3LYP DEF2-SVP OPT FREQ D4 SOSCF
|  2>
|  3> %geom
|  4> convergence tight
|  5> maxIter 1000
|  6> end
|  7>
|  8> * xyz 1 1
|  9>   C   0.52090680871194      0.64635684178778      3.95375336548163
| 10>   C   -0.16088231409265      1.23259653783247      2.85008152369378
| 11>   C   -0.08632900086693      0.66019410483775      1.59315293504013
| 12>   C   0.67398896775458     -0.51869175606439      1.39870131344151
| 13>   C   1.35769779383823     -1.11676899872307      2.48105016045146
| 14>   C   1.28360660032146     -0.54518222654854      3.73668807490731
| 15>   C   0.44260113098650      1.23978361086548      5.31323782625552
| 16>   H   1.44867889383279      1.33897769661346      5.75981849360489
| 17>   H   -0.10817672329960      0.55706125397979      5.99177904239395
| 18>   H   -0.06123879643067      2.21512544185021      5.32338725404929
| 19>   H   -0.74347753852899      2.14276200739656      3.00920590339546
| 20>   H   -0.60974644155694      1.11208301268058      0.74792213435087
| 21>   H   0.73178394597467     -0.96854974179989      0.40430936885656
| 22>   H   1.94118056000124     -2.02555258214596      2.31955512827320
| 23>   H   1.80937447690331     -0.99749778623218      4.58127669036045
| 24>   N       -2.43265       -2.34708      -13.46786
| 25>   O       -1.99860       -1.21372      -13.28629
| 26>   O       -2.26219       -0.54127      -14.63769
| 27> **                         ****END OF INPUT****
 Total Charge           Charge          ....    1
 Multiplicity           Mult            ....    1
 Number of Electrons    NEL             ....   72
Dispersion correction           -0.021363240
FINAL SINGLE POINT ENERGY      -475.537487073013
Dispersion correction            ... Starting D4
Dispersion correction           -0.021373470
FINAL SINGLE POINT ENERGY      -475.546425312428
Dispersion correction            ... Starting D4
Dispersion correction           -0.021373936
FINAL SINGLE POINT ENERGY      -475.546802009539
Dispersion correction            ... Starting D4
FINAL SINGLE POINT ENERGY      -475.546957927393
FINAL SINGLE POINT ENERGY      -475.547132257571
FINAL SINGLE POINT ENERGY      -475.547194075832
FINAL SINGLE POINT ENERGY      -475.547243343735
FINAL SINGLE POINT ENERGY      -475.547271931694
FINAL SINGLE POINT ENERGY      -475.547293966083
FINAL SINGLE POINT ENERGY      -475.547315415576
FINAL SINGLE POINT ENERGY      -475.548292299396
FINAL SINGLE POINT ENERGY      -475.548292960935
FINAL SINGLE POINT ENERGY      -475.548292902098
FINAL SINGLE POINT ENERGY      -475.548292830894
FINAL SINGLE POINT ENERGY      -475.548292395447
FINAL SINGLE POINT ENERGY      -475.548291316762
FINAL SINGLE POINT ENERGY      -475.548291642209
Dispersion correction           -0.021374731
FINAL SINGLE POINT ENERGY      -475.548292288798
Dispersion correction            ... Starting D4
Dispersion correction           -0.021374718
FINAL SINGLE POINT ENERGY      -475.548292223460
Dispersion correction            ... Starting D4
                    ***********************HURRAY********************

CARTESIAN COORDINATES (ANGSTROEM)
---------------------------------
  C      0.632401    0.713314    4.604826
  C     -0.045940    1.313902    3.506535
  C      0.020140    0.749487    2.245489
  C      0.768285   -0.435233    2.041260
  C      1.448861   -1.047082    3.117921
  C      1.383071   -0.483516    4.377754
  C      0.559255    1.297002    5.968975
  H      1.560130    1.348843    6.433542
  H     -0.033555    0.632480    6.630559
  H      0.094428    2.291649    5.980944
  H     -0.619076    2.228739    3.673176
  H     -0.500320    1.212315    1.404266
  H      0.819092   -0.878783    1.043683
  H      2.023398   -1.960190    2.948963
  H      1.906456   -0.946680    5.217920
  N     -2.962747   -2.700536  -17.003688
  O     -2.287034   -1.834666  -16.711263
  O     -3.020317   -0.630416  -17.408783

 Multiplicity           Mult            ....    1
 Number of Electrons    NEL             ....   72
 Basis Dimension        Dim             ....  180

ORBITAL ENERGIES
----------------

  NO   OCC          E(Eh)            E(eV)
   0   2.0000     -19.537596      -531.6450
   1   2.0000     -19.343840      -526.3727
   2   2.0000     -14.678252      -399.4156
   3   2.0000     -10.363363      -282.0014
   4   2.0000     -10.352135      -281.6959
   5   2.0000     -10.335989      -281.2566
   6   2.0000     -10.334964      -281.2287
   7   2.0000     -10.333231      -281.1815
   8   2.0000     -10.332664      -281.1661
   9   2.0000     -10.314252      -280.6651
  10   2.0000      -1.488442       -40.5026
  11   2.0000      -1.071647       -29.1610
  12   2.0000      -0.994433       -27.0599
  13   2.0000      -0.907078       -24.6828
  14   2.0000      -0.882026       -24.0011
  15   2.0000      -0.860256       -23.4088
  16   2.0000      -0.813357       -22.1326
  17   2.0000      -0.739854       -20.1325
  18   2.0000      -0.737405       -20.0658
  19   2.0000      -0.726071       -19.7574
  20   2.0000      -0.718350       -19.5473
  21   2.0000      -0.671343       -18.2682
  22   2.0000      -0.646663       -17.5966
  23   2.0000      -0.605254       -16.4698
  24   2.0000      -0.585795       -15.9403
  25   2.0000      -0.561897       -15.2900
  26   2.0000      -0.549498       -14.9526
  27   2.0000      -0.548094       -14.9144
  28   2.0000      -0.515026       -14.0146
  29   2.0000      -0.491630       -13.3779
  30   2.0000      -0.488316       -13.2878
  31   2.0000      -0.477998       -13.0070
  32   2.0000      -0.454817       -12.3762
  33   2.0000      -0.444438       -12.0938
  34   2.0000      -0.398855       -10.8534
  35   2.0000      -0.371506       -10.1092
  36   0.0000      -0.366507        -9.9732
  37   0.0000      -0.291553        -7.9335
  38   0.0000      -0.202158        -5.5010
  39   0.0000      -0.156024        -4.2456
  40   0.0000      -0.143815        -3.9134

MULLIKEN ATOMIC CHARGES
-----------------------
   0 C :   -0.039572
   1 C :    0.033587
   2 C :    0.045964
   3 C :    0.067919
   4 C :    0.042624
   5 C :    0.035761
   6 C :    0.062819
   7 H :    0.072041
   8 H :    0.084226
   9 H :    0.053127
  10 H :    0.026162
  11 H :    0.039100
  12 H :    0.049815
  13 H :    0.039513
  14 H :    0.027196
  15 N :    0.275701
  16 O :    0.191091
  17 O :   -0.107073
Sum of atomic charges:    1.0000000

LOEWDIN ATOMIC CHARGES
----------------------
   0 C :    0.076387
   1 C :    0.012630
   2 C :    0.019507
   3 C :    0.087175
   4 C :    0.010023
   5 C :    0.024736
   6 C :   -0.030920
   7 H :    0.064166
   8 H :    0.074897
   9 H :    0.047534
  10 H :    0.048256
  11 H :    0.051941
  12 H :    0.053295
  13 H :    0.052064
  14 H :    0.048590
  15 N :    0.208864
  16 O :    0.286534
  17 O :   -0.135679

  Mayer bond orders larger than 0.100000
B(  0-C ,  1-C ) :   1.2598 B(  0-C ,  5-C ) :   1.2218 B(  0-C ,  6-C ) :   1.1028
B(  0-C , 15-N ) :   0.1036 B(  0-C , 17-O ) :   0.1384 B(  1-C ,  2-C ) :   1.4589
B(  1-C , 10-H ) :   0.9882 B(  2-C ,  3-C ) :   1.2621 B(  2-C , 11-H ) :   0.9848
B(  3-C ,  4-C ) :   1.2770 B(  3-C , 12-H ) :   0.9837 B(  3-C , 15-N ) :   0.1110
B(  3-C , 17-O ) :   0.1484 B(  4-C ,  5-C ) :   1.4680 B(  4-C , 13-H ) :   0.9860
B(  5-C , 14-H ) :   0.9911 B(  6-C ,  7-H ) :   0.9309 B(  6-C ,  8-H ) :   0.9143
B(  6-C ,  9-H ) :   0.9573 B( 15-N , 16-O ) :   1.9477 B( 15-N , 17-O ) :   0.4485
B( 16-O , 17-O ) :   0.6656

Dispersion correction           -0.021374732
FINAL SINGLE POINT ENERGY      -475.548292250069

DIPOLE MOMENT
-------------
                                X             Y             Z
Electronic contribution:     -8.24727      -7.01246     -55.34484
Nuclear contribution   :      8.31759       6.25352      54.68096
                        -----------------------------------------
Total Dipole Moment    :      0.07032      -0.75894      -0.66388
                        -----------------------------------------
Magnitude (a.u.)       :      1.01078
Magnitude (Debye)      :      2.56919

Dispersion correction in the Hessian             ... Starting D4

VIBRATIONAL FREQUENCIES
-----------------------

Scaling factor for frequencies =  1.000000000  (already applied!)

   0:         0.00 cm**-1
   1:         0.00 cm**-1
   2:         0.00 cm**-1
   3:         0.00 cm**-1
   4:         0.00 cm**-1
   5:         0.00 cm**-1
   6:       -17.32 cm**-1 ***imaginary mode***
   7:        -8.02 cm**-1 ***imaginary mode***
   8:        -4.02 cm**-1 ***imaginary mode***
   9:         3.54 cm**-1
  10:         5.90 cm**-1
  11:         9.31 cm**-1
  12:        13.67 cm**-1
  13:       180.10 cm**-1
  14:       319.86 cm**-1
  15:       348.51 cm**-1
  16:       380.27 cm**-1
  17:       402.63 cm**-1
  18:       440.30 cm**-1
  19:       519.92 cm**-1
  20:       547.25 cm**-1
  21:       628.14 cm**-1
  22:       753.16 cm**-1
  23:       792.89 cm**-1
  24:       823.89 cm**-1
  25:       935.56 cm**-1
  26:       974.99 cm**-1
  27:      1004.34 cm**-1
  28:      1010.74 cm**-1
  29:      1017.93 cm**-1
  30:      1020.81 cm**-1
  31:      1036.45 cm**-1
  32:      1096.73 cm**-1
  33:      1154.94 cm**-1
  34:      1197.20 cm**-1
  35:      1253.45 cm**-1
  36:      1302.44 cm**-1
  37:      1352.98 cm**-1
  38:      1386.53 cm**-1
  39:      1413.74 cm**-1
  40:      1415.28 cm**-1
  41:      1452.88 cm**-1
  42:      1489.60 cm**-1
  43:      1518.76 cm**-1
  44:      1671.69 cm**-1
  45:      1867.56 cm**-1
  46:      2988.45 cm**-1
  47:      3056.32 cm**-1
  48:      3150.58 cm**-1
  49:      3193.79 cm**-1
  50:      3197.45 cm**-1
  51:      3203.57 cm**-1
  52:      3212.20 cm**-1
  53:      3217.23 cm**-1

IR SPECTRUM
-----------

 Mode   freq       eps      Int      T**2         TX        TY        TZ
       cm**-1   L/(mol*cm) km/mol    a.u.
----------------------------------------------------------------------------
  9:      3.54   0.000000    0.00  0.000000  ( 0.000000  0.000000  0.000000)
 10:      5.90   0.000005    0.02  0.000261  ( 0.002254 -0.011096 -0.011531)
 11:      9.31   0.000839    4.24  0.028134  ( 0.106170 -0.015499 -0.128923)
 12:     13.67   0.000460    2.32  0.010493  ( 0.102088  0.008400 -0.000699)
 13:    180.10   0.000266    1.34  0.000461  ( 0.015775  0.013711 -0.004887)
 14:    319.86   0.022558  114.00  0.022008  (-0.019675 -0.083521 -0.121018)
 15:    348.51   0.001649    8.33  0.001477  ( 0.009619 -0.004122  0.036973)
 16:    380.27   0.000003    0.02  0.000003  ( 0.001177 -0.001135  0.000191)
 17:    402.63   0.604437  3054.58  0.468477  ( 0.105360  0.062824  0.673372)
 18:    440.30   0.000278    1.41  0.000197  ( 0.010644  0.007250 -0.005596)
 19:    519.92   0.013824   69.86  0.008297  (-0.013903 -0.009580 -0.089512)
 20:    547.25   0.001944    9.83  0.001109  (-0.011285  0.006022 -0.030744)
 21:    628.14   0.004798   24.25  0.002384  (-0.036755 -0.023768  0.021626)
 22:    753.16   0.006804   34.38  0.002819  (-0.043407 -0.030570 -0.000558)
 23:    792.89   0.021652  109.42  0.008522  ( 0.020970  0.012099  0.089083)
 24:    823.89   0.000071    0.36  0.000027  (-0.004083 -0.002041 -0.002430)
 25:    935.56   0.006343   32.05  0.002116  (-0.001800 -0.003500 -0.045827)
 26:    974.99   0.052929  267.48  0.016941  ( 0.020158  0.012724  0.127956)
 27:   1004.34   0.034682  175.27  0.010776  (-0.010779 -0.004926 -0.103130)
 28:   1010.74   0.003312   16.74  0.001022  (-0.020142 -0.007925  0.023537)
 29:   1017.93   0.000275    1.39  0.000084  (-0.005189 -0.002239  0.007246)
 30:   1020.81   0.009187   46.43  0.002808  (-0.009615  0.000012 -0.052116)
 31:   1036.45   0.000127    0.64  0.000038  ( 0.001061  0.001300  0.005959)
 32:   1096.73   0.003798   19.19  0.001081  ( 0.017473 -0.018495  0.020817)
 33:   1154.94   0.006830   34.52  0.001845  ( 0.006032  0.005686  0.042151)
 34:   1197.20   0.100924  510.03  0.026307  (-0.025595 -0.016877 -0.159271)
 35:   1253.45   0.092978  469.87  0.023148  (-0.021134 -0.018248 -0.149561)
 36:   1302.44   0.030296  153.10  0.007259  ( 0.011895  0.010159  0.083751)
 37:   1352.98   0.066414  335.63  0.015318  (-0.012931 -0.008662 -0.122785)
 38:   1386.53   0.000939    4.74  0.000211  (-0.013160  0.006110 -0.000882)
 39:   1413.74   0.001893    9.56  0.000418  ( 0.008088  0.011709 -0.014672)
 40:   1415.28   0.003832   19.37  0.000845  ( 0.024202 -0.011541  0.011226)
 41:   1452.88   0.032098  162.21  0.006894  (-0.011082  0.002927 -0.082237)
 42:   1489.60   0.056775  286.92  0.011894  (-0.006348 -0.029702 -0.104745)
 43:   1518.76   0.003888   19.65  0.000799  (-0.015905  0.018739 -0.013956)
 44:   1671.69   0.605444  3059.67  0.113021  (-0.053077 -0.035983 -0.330014)
 45:   1867.56   0.617462  3120.40  0.103176  ( 0.032355  0.065992  0.312689)
 46:   2988.45   0.120305  607.97  0.012563  (-0.012435 -0.014729 -0.110413)
 47:   3056.32   0.000532    2.69  0.000054  ( 0.003986  0.001756  0.005942)
 48:   3150.58   0.021307  107.68  0.002110  ( 0.003999  0.010132  0.044630)
 49:   3193.79   0.001008    5.10  0.000099  ( 0.001082  0.001740  0.009712)
 50:   3197.45   0.000056    0.28  0.000005  (-0.000256 -0.000388 -0.002284)
 51:   3203.57   0.002773   14.02  0.000270  ( 0.002504  0.001950  0.016127)
 52:   3212.20   0.000149    0.75  0.000014  (-0.001742  0.001634 -0.002954)
 53:   3217.23   0.003625   18.32  0.000352  ( 0.002943  0.002096  0.018401)

--------------------------
THERMOCHEMISTRY AT 298.15K
--------------------------

Temperature         ... 298.15 K
Pressure            ... 1.00 atm
Total Mass          ... 138.15 AMU

Throughout the following assumptions are being made:
  (1) The electronic state is orbitally nondegenerate
  (2) There are no thermally accessible electronically excited states
  (3) Hindered rotations indicated by low frequency modes are not
      treated as such but are treated as vibrations and this may
      cause some error
  (4) All equations used are the standard statistical mechanics
      equations for an ideal gas
  (5) All vibrations are strictly harmonic

freq.       3.54  E(vib)   ...       0.59
freq.       5.90  E(vib)   ...       0.58
freq.       9.31  E(vib)   ...       0.58
freq.      13.67  E(vib)   ...       0.57
freq.     180.10  E(vib)   ...       0.37
freq.     319.86  E(vib)   ...       0.25
freq.     348.51  E(vib)   ...       0.23
freq.     380.27  E(vib)   ...       0.21
freq.     402.63  E(vib)   ...       0.19
freq.     440.30  E(vib)   ...       0.17
freq.     519.92  E(vib)   ...       0.13
freq.     547.25  E(vib)   ...       0.12
freq.     628.14  E(vib)   ...       0.09
freq.     753.16  E(vib)   ...       0.06
freq.     792.89  E(vib)   ...       0.05
freq.     823.89  E(vib)   ...       0.05
freq.     935.56  E(vib)   ...       0.03
freq.     974.99  E(vib)   ...       0.03
freq.    1004.34  E(vib)   ...       0.02
freq.    1010.74  E(vib)   ...       0.02
freq.    1017.93  E(vib)   ...       0.02
freq.    1020.81  E(vib)   ...       0.02
freq.    1036.45  E(vib)   ...       0.02
freq.    1096.73  E(vib)   ...       0.02
freq.    1154.94  E(vib)   ...       0.01
freq.    1197.20  E(vib)   ...       0.01
freq.    1253.45  E(vib)   ...       0.01
freq.    1302.44  E(vib)   ...       0.01
freq.    1352.98  E(vib)   ...       0.01
freq.    1386.53  E(vib)   ...       0.00
freq.    1413.74  E(vib)   ...       0.00
freq.    1415.28  E(vib)   ...       0.00
freq.    1452.88  E(vib)   ...       0.00
freq.    1489.60  E(vib)   ...       0.00
freq.    1518.76  E(vib)   ...       0.00
freq.    1671.69  E(vib)   ...       0.00
freq.    1867.56  E(vib)   ...       0.00
freq.    2988.45  E(vib)   ...       0.00
freq.    3056.32  E(vib)   ...       0.00
freq.    3150.58  E(vib)   ...       0.00
freq.    3193.79  E(vib)   ...       0.00
freq.    3197.45  E(vib)   ...       0.00
freq.    3203.57  E(vib)   ...       0.00
freq.    3212.20  E(vib)   ...       0.00
freq.    3217.23  E(vib)   ...       0.00

------------
INNER ENERGY
------------

The inner energy is: U= E(el) + E(ZPE) + E(vib) + E(rot) + E(trans)
    E(el)   - is the total energy from the electronic structure calculation
              = E(kin-el) + E(nuc-el) + E(el-el) + E(nuc-nuc)
    E(ZPE)  - the the zero temperature vibrational energy from the frequency calculation
    E(vib)  - the the finite temperature correction to E(ZPE) due to population
              of excited vibrational states
    E(rot)  - is the rotational thermal energy
    E(trans)- is the translational thermal energy

Summary of contributions to the inner energy U:
Electronic energy                ...   -475.54829225 Eh
Zero point energy                ...      0.13205062 Eh      82.86 kcal/mol
Thermal vibrational correction   ...      0.00715143 Eh       4.49 kcal/mol
Thermal rotational correction    ...      0.00141627 Eh       0.89 kcal/mol
Thermal translational correction ...      0.00141627 Eh       0.89 kcal/mol
-----------------------------------------------------------------------
Total thermal energy                   -475.40625766 Eh

Summary of corrections to the electronic energy:
(perhaps to be used in another calculation)
Total thermal correction                  0.00998397 Eh       6.27 kcal/mol
Non-thermal (ZPE) correction              0.13205062 Eh      82.86 kcal/mol
-----------------------------------------------------------------------
Total correction                          0.14203459 Eh      89.13 kcal/mol

--------
ENTHALPY
--------

The enthalpy is H = U + kB*T
                kB is Boltzmann's constant
Total free energy                 ...   -475.40625766 Eh
Thermal Enthalpy correction       ...      0.00094421 Eh       0.59 kcal/mol
-----------------------------------------------------------------------
Total Enthalpy                    ...   -475.40531345 Eh

Note: Only C1 symmetry has been detected, increase convergence thresholds
      if your molecule has a higher symmetry. Symmetry factor of 1.0 is
      used for the rotational entropy correction.

Note: Rotational entropy computed according to Herzberg
Infrared and Raman Spectra, Chapter V,1, Van Nostrand Reinhold, 1945
Point Group:  C1, Symmetry Number:   1
Rotational constants in cm-1:     0.114895     0.001210     0.001200

Vibrational entropy computed according to the QRRHO of S. Grimme
Chem.Eur.J. 2012 18 9955

-------
ENTROPY
-------

The entropy contributions are T*S = T*(S(el)+S(vib)+S(rot)+S(trans))
     S(el)   - electronic entropy
     S(vib)  - vibrational entropy
     S(rot)  - rotational entropy
     S(trans)- translational entropy
The entropies will be listed as multiplied by the temperature to get
units of energy

Electronic entropy                ...      0.00000000 Eh      0.00 kcal/mol
Vibrational entropy               ...      0.01555530 Eh      9.76 kcal/mol
Rotational entropy                ...      0.01687850 Eh     10.59 kcal/mol
Translational entropy             ...      0.01932890 Eh     12.13 kcal/mol
-----------------------------------------------------------------------
Final entropy term                ...      0.05176270 Eh     32.48 kcal/mol

In case the symmetry of your molecule has not been determined correctly
or in case you have a reason to use a different symmetry number we print
out the resulting rotational entropy values for sn=1,12 :
 --------------------------------------------------------
|  sn= 1 | S(rot)=       0.01687850 Eh     10.59 kcal/mol|
|  sn= 2 | S(rot)=       0.01622405 Eh     10.18 kcal/mol|
|  sn= 3 | S(rot)=       0.01584121 Eh      9.94 kcal/mol|
|  sn= 4 | S(rot)=       0.01556959 Eh      9.77 kcal/mol|
|  sn= 5 | S(rot)=       0.01535890 Eh      9.64 kcal/mol|
|  sn= 6 | S(rot)=       0.01518676 Eh      9.53 kcal/mol|
|  sn= 7 | S(rot)=       0.01504121 Eh      9.44 kcal/mol|
|  sn= 8 | S(rot)=       0.01491513 Eh      9.36 kcal/mol|
|  sn= 9 | S(rot)=       0.01480393 Eh      9.29 kcal/mol|
|  sn=10 | S(rot)=       0.01470445 Eh      9.23 kcal/mol|
|  sn=11 | S(rot)=       0.01461446 Eh      9.17 kcal/mol|
|  sn=12 | S(rot)=       0.01453230 Eh      9.12 kcal/mol|
 --------------------------------------------------------

-------------------
GIBBS FREE ENERGY
-------------------

                             ****ORCA TERMINATED NORMALLY****
TOTAL RUN TIME: 0 days 5 hours 41 minutes 29 seconds 141 msec
