                         Program Version 5.0.4 -  RELEASE  -
|  1> !B3LYP DEF2-SVP FREQ D4 SOSCF
|  2>
|  3> * xyz 1 1
|  4>   C   -5.68810343766179      0.74157194467983      4.01600345747737
|  5>   C   -6.13711342784993      1.48130994548141      2.89520885046906
|  6>   C   -6.03318680210626      0.96557073872231      1.62407657863834
|  7>   C   -5.47718636511764     -0.30634894056667      1.43265234477212
|  8>   C   -5.02860291959136     -1.05397170266959      2.53218431771792
|  9>   C   -5.13320119858906     -0.53593985929596      3.80456689754732
| 10>   C   -5.80170604025710      1.31760185169756      5.38315949856062
| 11>   H   -5.47839312050791      0.62137420173713      6.15196784693495
| 12>   H   -6.83102372666073      1.62130497584222      5.59177633389392
| 13>   H   -5.19908828977786      2.22779405730209      5.46514341465626
| 14>   H   -6.56547870615366      2.46171907523405      3.05178584971923
| 15>   H   -6.37818858479631      1.53540488145251      0.77381213864573
| 16>   H   -5.39349414981069     -0.71397844778302      0.43548612211496
| 17>   H   -4.60252127018528     -2.03430197242319      2.37625178977967
| 18>   H   -4.78948470065247     -1.10737471780284      4.65509537223694
| 19>   N   -10.72284505292838     -2.04389248947835    -23.96004958934253
| 20>   O   -10.31363332527764     -1.94908028679250    -22.88606609379230
| 21>   O   -10.56943174759388     -2.21893568724735    -25.08929918767560
| 22> **                         ****END OF INPUT****

CARTESIAN COORDINATES (ANGSTROEM)
---------------------------------
  C     -5.688103    0.741572    4.016003
  C     -6.137113    1.481310    2.895209
  C     -6.033187    0.965571    1.624077
  C     -5.477186   -0.306349    1.432652
  C     -5.028603   -1.053972    2.532184
  C     -5.133201   -0.535940    3.804567
  C     -5.801706    1.317602    5.383159
  H     -5.478393    0.621374    6.151968
  H     -6.831024    1.621305    5.591776
  H     -5.199088    2.227794    5.465143
  H     -6.565479    2.461719    3.051786
  H     -6.378189    1.535405    0.773812
  H     -5.393494   -0.713978    0.435486
  H     -4.602521   -2.034302    2.376252
  H     -4.789485   -1.107375    4.655095
  N    -10.722845   -2.043892  -23.960050
  O    -10.313633   -1.949080  -22.886066
  O    -10.569432   -2.218936  -25.089299

 Total Charge           Charge          ....    1
 Multiplicity           Mult            ....    1
 Number of Electrons    NEL             ....   72
 Basis Dimension        Dim             ....  180

ORBITAL ENERGIES
----------------

  NO   OCC          E(Eh)            E(eV)
   0   2.0000     -19.668691      -535.2123
   1   2.0000     -19.668613      -535.2102
   2   2.0000     -15.001799      -408.2197
   3   2.0000     -10.208946      -277.7996
   4   2.0000     -10.201102      -277.5861
   5   2.0000     -10.200641      -277.5736
   6   2.0000     -10.200009      -277.5563
   7   2.0000     -10.198385      -277.5122
   8   2.0000     -10.198043      -277.5029
   9   2.0000     -10.197431      -277.4862
  10   2.0000      -1.689925       -45.9852
  11   2.0000      -1.568819       -42.6897
  12   2.0000      -1.009435       -27.4681
  13   2.0000      -0.970065       -26.3968
  14   2.0000      -0.966924       -26.3113
  15   2.0000      -0.937985       -25.5239
  16   2.0000      -0.863220       -23.4894
  17   2.0000      -0.779204       -21.2032
  18   2.0000      -0.759952       -20.6794
  19   2.0000      -0.755402       -20.5555
  20   2.0000      -0.755204       -20.5501
  21   2.0000      -0.691966       -18.8293
  22   2.0000      -0.613450       -16.6928
  23   2.0000      -0.595024       -16.1914
  24   2.0000      -0.525529       -14.3004
  25   2.0000      -0.477535       -12.9944
  26   2.0000      -0.467341       -12.7170
  27   2.0000      -0.439286       -11.9536
  28   2.0000      -0.435681       -11.8555
  29   2.0000      -0.421518       -11.4701
  30   2.0000      -0.402490       -10.9523
  31   2.0000      -0.370491       -10.0816
  32   2.0000      -0.361664        -9.8414
  33   2.0000      -0.353477        -9.6186
  34   2.0000      -0.272579        -7.4173
  35   2.0000      -0.254865        -6.9352
  36   0.0000      -0.502499       -13.6737
  37   0.0000      -0.440146       -11.9770
  38   0.0000      -0.188093        -5.1183
  39   0.0000      -0.024463        -0.6657
  40   0.0000      -0.017507        -0.4764

MULLIKEN ATOMIC CHARGES
-----------------------
   0 C :   -0.053263
   1 C :   -0.002235
   2 C :    0.033865
   3 C :    0.016903
   4 C :    0.033814
   5 C :   -0.001149
   6 C :    0.097651
   7 H :    0.002306
   8 H :    0.018749
   9 H :    0.021749
  10 H :   -0.041768
  11 H :   -0.029317
  12 H :   -0.029048
  13 H :   -0.028477
  14 H :   -0.039779
  15 N :    0.586461
  16 O :    0.206673
  17 O :    0.206866
Sum of atomic charges:    1.0000000

LOEWDIN ATOMIC CHARGES
----------------------
   0 C :   -0.019349
   1 C :   -0.028445
   2 C :   -0.023679
   3 C :   -0.031171
   4 C :   -0.022747
   5 C :   -0.031785
   6 C :   -0.043301
   7 H :    0.025469
   8 H :    0.033031
   9 H :    0.034635
  10 H :    0.020164
  11 H :    0.022814
  12 H :    0.020362
  13 H :    0.023309
  14 H :    0.020693
  15 N :    0.483116
  16 O :    0.258334
  17 O :    0.258550

  Mayer bond orders larger than 0.100000
B(  0-C ,  1-C ) :   1.3787 B(  0-C ,  5-C ) :   1.3981 B(  0-C ,  6-C ) :   1.0706
B(  1-C ,  2-C ) :   1.3964 B(  1-C , 10-H ) :   0.9904 B(  2-C ,  3-C ) :   1.3728
B(  2-C , 11-H ) :   0.9868 B(  3-C ,  4-C ) :   1.3900 B(  3-C , 12-H ) :   0.9855
B(  4-C ,  5-C ) :   1.3783 B(  4-C , 13-H ) :   0.9854 B(  5-C , 14-H ) :   0.9867
B(  6-C ,  7-H ) :   0.9578 B(  6-C ,  8-H ) :   0.9519 B(  6-C ,  9-H ) :   0.9504
B( 15-N , 16-O ) :   2.0000 B( 15-N , 17-O ) :   2.0004 B( 16-O , 17-O ) :   0.5290

Dispersion correction           -0.021555100
FINAL SINGLE POINT ENERGY      -475.663419218522

DIPOLE MOMENT
-------------
                                X             Y             Z
Electronic contribution:    -18.24466     -10.48339    -104.31823
Nuclear contribution   :     11.87975       7.49169      70.32575
                        -----------------------------------------
Total Dipole Moment    :     -6.36491      -2.99169     -33.99248
                        -----------------------------------------
Magnitude (a.u.)       :     34.71240
Magnitude (Debye)      :     88.23191

Dispersion correction in the Hessian             ... Starting D4

VIBRATIONAL FREQUENCIES
-----------------------

Scaling factor for frequencies =  1.000000000  (already applied!)

   0:         0.00 cm**-1
   1:         0.00 cm**-1
   2:         0.00 cm**-1
   3:         0.00 cm**-1
   4:         0.00 cm**-1
   5:         0.00 cm**-1
   6:      -286.80 cm**-1 ***imaginary mode***
   7:       -80.23 cm**-1 ***imaginary mode***
   8:       -72.05 cm**-1 ***imaginary mode***
   9:        -0.34 cm**-1
  10:       157.14 cm**-1
  11:       174.23 cm**-1
  12:       196.27 cm**-1
  13:       318.60 cm**-1
  14:       387.40 cm**-1
  15:       460.45 cm**-1
  16:       534.52 cm**-1
  17:       627.58 cm**-1
  18:       663.85 cm**-1
  19:       706.24 cm**-1
  20:       727.80 cm**-1
  21:       738.49 cm**-1
  22:       805.54 cm**-1
  23:       809.04 cm**-1
  24:       872.34 cm**-1
  25:       959.19 cm**-1
  26:       966.22 cm**-1
  27:       982.56 cm**-1
  28:      1010.27 cm**-1
  29:      1031.97 cm**-1
  30:      1034.24 cm**-1
  31:      1102.68 cm**-1
  32:      1142.52 cm**-1
  33:      1171.02 cm**-1
  34:      1264.32 cm**-1
  35:      1312.76 cm**-1
  36:      1358.68 cm**-1
  37:      1372.38 cm**-1
  38:      1385.33 cm**-1
  39:      1439.56 cm**-1
  40:      1450.66 cm**-1
  41:      1513.55 cm**-1
  42:      1517.53 cm**-1
  43:      1616.69 cm**-1
  44:      1705.03 cm**-1
  45:      2106.52 cm**-1
  46:      3106.33 cm**-1
  47:      3167.51 cm**-1
  48:      3244.81 cm**-1
  49:      3281.59 cm**-1
  50:      3286.03 cm**-1
  51:      3295.15 cm**-1
  52:      3305.65 cm**-1
  53:      3313.84 cm**-1

IR SPECTRUM
-----------

 Mode   freq       eps      Int      T**2         TX        TY        TZ
       cm**-1   L/(mol*cm) km/mol    a.u.
----------------------------------------------------------------------------
 10:    157.14   0.000524    2.65  0.001041  ( 0.029418  0.012835 -0.003340)
 11:    174.23   0.000004    0.02  0.000007  (-0.000112  0.002605 -0.000219)
 12:    196.27   0.000011    0.05  0.000017  (-0.003040  0.000069 -0.002771)
 13:    318.60   0.000076    0.38  0.000074  (-0.003387  0.007906 -0.000197)
 14:    387.40   0.000002    0.01  0.000001  ( 0.000255  0.001128  0.000198)
 15:    460.45   0.002106   10.64  0.001428  ( 0.034000  0.016138 -0.003334)
 16:    534.52   0.000090    0.46  0.000053  (-0.000662 -0.002656 -0.006716)
 17:    627.58   0.000029    0.15  0.000014  (-0.001631  0.002995 -0.001659)
 18:    663.85   0.008981   45.39  0.004222  (-0.058632 -0.027311  0.006192)
 19:    706.24   0.001821    9.20  0.000804  (-0.003487 -0.027865  0.003977)
 20:    727.80   0.000217    1.10  0.000093  (-0.008839 -0.003618  0.001318)
 21:    738.49   0.001440    7.28  0.000609  (-0.024300  0.003493  0.002445)
 22:    805.54   0.000001    0.01  0.000001  ( 0.000370  0.000492 -0.000371)
 23:    809.04   0.000126    0.64  0.000049  (-0.000416  0.003634  0.005941)
 24:    872.34   0.000020    0.10  0.000007  ( 0.002300  0.000952 -0.001054)
 25:    959.19   0.000000    0.00  0.000000  (-0.000030 -0.000366  0.000026)
 26:    966.22   0.000524    2.65  0.000169  (-0.001303  0.006120  0.011410)
 27:    982.56   0.000007    0.04  0.000002  ( 0.001127  0.000926  0.000492)
 28:   1010.27   0.000126    0.64  0.000039  ( 0.000827 -0.001603 -0.005974)
 29:   1031.97   0.000937    4.74  0.000283  ( 0.014104  0.008555  0.003349)
 30:   1034.24   0.000528    2.67  0.000159  ( 0.002897 -0.004026 -0.011609)
 31:   1102.68   0.001306    6.60  0.000370  (-0.007984  0.016875 -0.004604)
 32:   1142.52   0.000036    0.18  0.000010  (-0.001308  0.002568 -0.001197)
 33:   1171.02   0.000040    0.20  0.000011  (-0.000309  0.001456  0.002899)
 34:   1264.32   0.000104    0.52  0.000026  (-0.000823  0.003630  0.003432)
 35:   1312.76   0.000101    0.51  0.000024  ( 0.000395  0.000424  0.004862)
 36:   1358.68   0.000183    0.93  0.000042  ( 0.002256 -0.003572  0.004920)
 37:   1372.38   0.000103    0.52  0.000023  ( 0.004765 -0.000688 -0.000525)
 38:   1385.33   0.000138    0.70  0.000031  (-0.001120  0.005397  0.000849)
 39:   1439.56   0.001303    6.58  0.000282  (-0.015766 -0.005664  0.001320)
 40:   1450.66   0.001171    5.92  0.000252  (-0.005387  0.014269 -0.004387)
 41:   1513.55   0.001393    7.04  0.000287  ( 0.005457 -0.014274 -0.007322)
 42:   1517.53   0.003014   15.23  0.000620  ( 0.001199  0.003084  0.024676)
 43:   1616.69   0.000100    0.51  0.000019  (-0.001839  0.003995 -0.000151)
 44:   1705.03   0.001582    8.00  0.000290  (-0.001333  0.006805  0.015542)
 45:   2106.52   0.056137  283.69  0.008316  (-0.010440 -0.010988 -0.089925)
 46:   3106.33   0.004688   23.69  0.000471  ( 0.000953 -0.011770 -0.018207)
 47:   3167.51   0.002635   13.31  0.000260  (-0.014873 -0.004917  0.003767)
 48:   3244.81   0.002434   12.30  0.000234  (-0.005157  0.009503 -0.010825)
 49:   3281.59   0.001244    6.29  0.000118  ( 0.002665 -0.007424 -0.007489)
 50:   3286.03   0.000718    3.63  0.000068  (-0.002684  0.004485 -0.006394)
 51:   3295.15   0.002232   11.28  0.000211  ( 0.001332 -0.005781 -0.013274)
 52:   3305.65   0.005920   29.92  0.000559  (-0.009624  0.018712 -0.010776)
 53:   3313.84   0.002132   10.77  0.000201  (-0.001202  0.005641  0.012941)

--------------------------
THERMOCHEMISTRY AT 298.15K
--------------------------

Temperature         ... 298.15 K
Pressure            ... 1.00 atm
Total Mass          ... 138.15 AMU

Throughout the following assumptions are being made:
  (1) The electronic state is orbitally nondegenerate
  (2) There are no thermally accessible electronically excited states
  (3) Hindered rotations indicated by low frequency modes are not
      treated as such but are treated as vibrations and this may
      cause some error
  (4) All equations used are the standard statistical mechanics
      equations for an ideal gas
  (5) All vibrations are strictly harmonic

freq.     157.14  E(vib)   ...       0.40
freq.     174.23  E(vib)   ...       0.38
freq.     196.27  E(vib)   ...       0.36
freq.     318.60  E(vib)   ...       0.25
freq.     387.40  E(vib)   ...       0.20
freq.     460.45  E(vib)   ...       0.16
freq.     534.52  E(vib)   ...       0.13
freq.     627.58  E(vib)   ...       0.09
freq.     663.85  E(vib)   ...       0.08
freq.     706.24  E(vib)   ...       0.07
freq.     727.80  E(vib)   ...       0.06
freq.     738.49  E(vib)   ...       0.06
freq.     805.54  E(vib)   ...       0.05
freq.     809.04  E(vib)   ...       0.05
freq.     872.34  E(vib)   ...       0.04
freq.     959.19  E(vib)   ...       0.03
freq.     966.22  E(vib)   ...       0.03
freq.     982.56  E(vib)   ...       0.02
freq.    1010.27  E(vib)   ...       0.02
freq.    1031.97  E(vib)   ...       0.02
freq.    1034.24  E(vib)   ...       0.02
freq.    1102.68  E(vib)   ...       0.02
freq.    1142.52  E(vib)   ...       0.01
freq.    1171.02  E(vib)   ...       0.01
freq.    1264.32  E(vib)   ...       0.01
freq.    1312.76  E(vib)   ...       0.01
freq.    1358.68  E(vib)   ...       0.01
freq.    1372.38  E(vib)   ...       0.01
freq.    1385.33  E(vib)   ...       0.00
freq.    1439.56  E(vib)   ...       0.00
freq.    1450.66  E(vib)   ...       0.00
freq.    1513.55  E(vib)   ...       0.00
freq.    1517.53  E(vib)   ...       0.00
freq.    1616.69  E(vib)   ...       0.00
freq.    1705.03  E(vib)   ...       0.00
freq.    2106.52  E(vib)   ...       0.00
freq.    3106.33  E(vib)   ...       0.00
freq.    3167.51  E(vib)   ...       0.00
freq.    3244.81  E(vib)   ...       0.00
freq.    3281.59  E(vib)   ...       0.00
freq.    3286.03  E(vib)   ...       0.00
freq.    3295.15  E(vib)   ...       0.00
freq.    3305.65  E(vib)   ...       0.00
freq.    3313.84  E(vib)   ...       0.00

------------
INNER ENERGY
------------

The inner energy is: U= E(el) + E(ZPE) + E(vib) + E(rot) + E(trans)
    E(el)   - is the total energy from the electronic structure calculation
              = E(kin-el) + E(nuc-el) + E(el-el) + E(nuc-nuc)
    E(ZPE)  - the the zero temperature vibrational energy from the frequency calculation
    E(vib)  - the the finite temperature correction to E(ZPE) due to population
              of excited vibrational states
    E(rot)  - is the rotational thermal energy
    E(trans)- is the translational thermal energy

Summary of contributions to the inner energy U:
Electronic energy                ...   -475.66341922 Eh
Zero point energy                ...      0.14038993 Eh      88.10 kcal/mol
Thermal vibrational correction   ...      0.00413538 Eh       2.59 kcal/mol
Thermal rotational correction    ...      0.00141627 Eh       0.89 kcal/mol
Thermal translational correction ...      0.00141627 Eh       0.89 kcal/mol
-----------------------------------------------------------------------
Total thermal energy                   -475.51606137 Eh

Summary of corrections to the electronic energy:
(perhaps to be used in another calculation)
Total thermal correction                  0.00696792 Eh       4.37 kcal/mol
Non-thermal (ZPE) correction              0.14038993 Eh      88.10 kcal/mol
-----------------------------------------------------------------------
Total correction                          0.14735785 Eh      92.47 kcal/mol

--------
ENTHALPY
--------

The enthalpy is H = U + kB*T
                kB is Boltzmann's constant
Total free energy                 ...   -475.51606137 Eh
Thermal Enthalpy correction       ...      0.00094421 Eh       0.59 kcal/mol
-----------------------------------------------------------------------
Total Enthalpy                    ...   -475.51511716 Eh

Note: Only C1 symmetry has been detected, increase convergence thresholds
      if your molecule has a higher symmetry. Symmetry factor of 1.0 is
      used for the rotational entropy correction.

Note: Rotational entropy computed according to Herzberg
Infrared and Raman Spectra, Chapter V,1, Van Nostrand Reinhold, 1945
Point Group:  C1, Symmetry Number:   1
Rotational constants in cm-1:     0.153233     0.000711     0.000708

Vibrational entropy computed according to the QRRHO of S. Grimme
Chem.Eur.J. 2012 18 9955

-------
ENTROPY
-------

The entropy contributions are T*S = T*(S(el)+S(vib)+S(rot)+S(trans))
     S(el)   - electronic entropy
     S(vib)  - vibrational entropy
     S(rot)  - rotational entropy
     S(trans)- translational entropy
The entropies will be listed as multiplied by the temperature to get
units of energy

Electronic entropy                ...      0.00000000 Eh      0.00 kcal/mol
Vibrational entropy               ...      0.00658343 Eh      4.13 kcal/mol
Rotational entropy                ...      0.01724277 Eh     10.82 kcal/mol
Translational entropy             ...      0.01932890 Eh     12.13 kcal/mol
-----------------------------------------------------------------------
Final entropy term                ...      0.04315510 Eh     27.08 kcal/mol

In case the symmetry of your molecule has not been determined correctly
or in case you have a reason to use a different symmetry number we print
out the resulting rotational entropy values for sn=1,12 :
 --------------------------------------------------------
|  sn= 1 | S(rot)=       0.01724277 Eh     10.82 kcal/mol|
|  sn= 2 | S(rot)=       0.01658832 Eh     10.41 kcal/mol|
|  sn= 3 | S(rot)=       0.01620548 Eh     10.17 kcal/mol|
|  sn= 4 | S(rot)=       0.01593386 Eh     10.00 kcal/mol|
|  sn= 5 | S(rot)=       0.01572317 Eh      9.87 kcal/mol|
|  sn= 6 | S(rot)=       0.01555103 Eh      9.76 kcal/mol|
|  sn= 7 | S(rot)=       0.01540548 Eh      9.67 kcal/mol|
|  sn= 8 | S(rot)=       0.01527940 Eh      9.59 kcal/mol|
|  sn= 9 | S(rot)=       0.01516820 Eh      9.52 kcal/mol|
|  sn=10 | S(rot)=       0.01506872 Eh      9.46 kcal/mol|
|  sn=11 | S(rot)=       0.01497873 Eh      9.40 kcal/mol|
|  sn=12 | S(rot)=       0.01489657 Eh      9.35 kcal/mol|
 --------------------------------------------------------

-------------------
GIBBS FREE ENERGY
-------------------

                             ****ORCA TERMINATED NORMALLY****
TOTAL RUN TIME: 0 days 0 hours 10 minutes 0 seconds 512 msec
