                         Program Version 5.0.4 -  RELEASE  -
|  1> !B3LYP DEF2-SVP OPT FREQ D4
|  2>
|  3> * xyz 1 1
|  4>    C       -6.28262        0.37383       -0.14715
|  5>    C       -7.24689        0.99592       -1.09451
|  6>    C       -7.38007        0.51244       -2.38984
|  7>    C       -6.52612       -0.64616       -2.88819
|  8>    C       -5.62245       -1.17020       -1.77887
|  9>    C       -5.54922       -0.66200       -0.55133
| 10>    C       -6.21540        0.96964        1.24229
| 11>    H       -5.48975        0.44342        1.86684
| 12>    H       -7.18942        0.91027        1.73324
| 13>    H       -5.92053        2.02043        1.19489
| 14>    H       -7.85822        1.83566       -0.77192
| 15>    H       -8.09254        0.97405       -3.06989
| 16>    H       -5.00485       -2.02869       -2.03170
| 17>    H       -4.85759       -1.12010        0.15231
| 18>    N       -5.75834       -0.26192       -4.10113
| 19>    O       -4.80241       -1.09395       -4.41283
| 20>    O       -6.50324        0.32984       -4.99248
| 21>    H       -7.19724       -1.45577       -3.18461
| 22> *
| 23>
| 24>                          ****END OF INPUT****
 Total Charge           Charge          ....    1
 Multiplicity           Mult            ....    1
 Number of Electrons    NEL             ....   72
Dispersion correction           -0.027030485
FINAL SINGLE POINT ENERGY      -475.704537962406
Dispersion correction            ... Starting D4
Dispersion correction           -0.027117657
FINAL SINGLE POINT ENERGY      -475.740992199733
Dispersion correction            ... Starting D4
Dispersion correction           -0.027238144
FINAL SINGLE POINT ENERGY      -475.756037641303
Dispersion correction            ... Starting D4
FINAL SINGLE POINT ENERGY      -475.760813519632
FINAL SINGLE POINT ENERGY      -475.762169560600
FINAL SINGLE POINT ENERGY      -475.762680774178
FINAL SINGLE POINT ENERGY      -475.762765125388
FINAL SINGLE POINT ENERGY      -475.762797981614
FINAL SINGLE POINT ENERGY      -475.762808414924
FINAL SINGLE POINT ENERGY      -475.762818136213
Dispersion correction           -0.027030092
FINAL SINGLE POINT ENERGY      -475.762824267878
Dispersion correction            ... Starting D4
Dispersion correction           -0.027030538
FINAL SINGLE POINT ENERGY      -475.762826828458
Dispersion correction            ... Starting D4
                    ***********************HURRAY********************

CARTESIAN COORDINATES (ANGSTROEM)
---------------------------------
  C     -6.337985    0.402862   -0.136161
  C     -7.227422    1.009717   -1.079489
  C     -7.286535    0.567140   -2.367896
  C     -6.507869   -0.610947   -2.788997
  C     -5.536670   -1.150970   -1.822769
  C     -5.504146   -0.685016   -0.539665
  C     -6.267311    0.936246    1.243316
  H     -5.544022    0.407014    1.875698
  H     -7.269399    0.887795    1.710391
  H     -6.014314    2.012991    1.216168
  H     -7.836681    1.859885   -0.763241
  H     -7.924476    1.046823   -3.114928
  H     -4.870908   -1.948440   -2.163469
  H     -4.810185   -1.118746    0.183636
  N     -5.893983   -0.445452   -4.245357
  O     -4.937274   -1.134047   -4.482085
  O     -6.482498    0.316423   -4.965455
  H     -7.245221   -1.426565   -2.984578

 Multiplicity           Mult            ....    1
 Number of Electrons    NEL             ....   72
 Basis Dimension        Dim             ....  180

ORBITAL ENERGIES
----------------

  NO   OCC          E(Eh)            E(eV)
   0   2.0000     -19.344858      -526.4003
   1   2.0000     -19.344817      -526.3992
   2   2.0000     -14.740099      -401.0985
   3   2.0000     -10.453136      -284.4443
   4   2.0000     -10.449442      -284.3438
   5   2.0000     -10.431450      -283.8542
   6   2.0000     -10.429424      -283.7990
   7   2.0000     -10.405106      -283.1373
   8   2.0000     -10.404769      -283.1282
   9   2.0000     -10.372294      -282.2445
  10   2.0000      -1.407594       -38.3026
  11   2.0000      -1.242626       -33.8136
  12   2.0000      -1.080579       -29.4041
  13   2.0000      -1.003273       -27.3005
  14   2.0000      -0.965698       -26.2780
  15   2.0000      -0.915174       -24.9031
  16   2.0000      -0.831158       -22.6170
  17   2.0000      -0.816899       -22.2290
  18   2.0000      -0.782376       -21.2895
  19   2.0000      -0.737808       -20.0768
  20   2.0000      -0.728219       -19.8159
  21   2.0000      -0.692699       -18.8493
  22   2.0000      -0.684835       -18.6353
  23   2.0000      -0.672446       -18.2982
  24   2.0000      -0.663910       -18.0659
  25   2.0000      -0.640227       -17.4215
  26   2.0000      -0.623627       -16.9698
  27   2.0000      -0.607681       -16.5358
  28   2.0000      -0.577555       -15.7161
  29   2.0000      -0.574623       -15.6363
  30   2.0000      -0.548998       -14.9390
  31   2.0000      -0.526819       -14.3355
  32   2.0000      -0.493250       -13.4220
  33   2.0000      -0.484193       -13.1756
  34   2.0000      -0.473220       -12.8770
  35   2.0000      -0.469901       -12.7866
  36   0.0000      -0.324469        -8.8292
  37   0.0000      -0.230219        -6.2646
  38   0.0000      -0.218292        -5.9400
  39   0.0000      -0.141138        -3.8406
  40   0.0000      -0.110069        -2.9951

MULLIKEN ATOMIC CHARGES
-----------------------
   0 C :   -0.018000
   1 C :    0.048134
   2 C :    0.031031
   3 C :    0.144615
   4 C :    0.033619
   5 C :    0.050704
   6 C :    0.053169
   7 H :    0.074104
   8 H :    0.101617
   9 H :    0.102566
  10 H :    0.054608
  11 H :    0.098124
  12 H :    0.097983
  13 H :    0.056046
  14 N :    0.209568
  15 O :   -0.147617
  16 O :   -0.147225
  17 H :    0.156955
Sum of atomic charges:    1.0000000

LOEWDIN ATOMIC CHARGES
----------------------
   0 C :    0.147612
   1 C :    0.000244
   2 C :    0.109440
   3 C :    0.000141
   4 C :    0.116960
   5 C :   -0.001517
   6 C :   -0.028012
   7 H :    0.056060
   8 H :    0.084267
   9 H :    0.084180
  10 H :    0.063877
  11 H :    0.070813
  12 H :    0.071319
  13 H :    0.064203
  14 N :    0.277795
  15 O :   -0.122571
  16 O :   -0.122149
  17 H :    0.127338

  Mayer bond orders larger than 0.100000
B(  0-C ,  1-C ) :   1.2158 B(  0-C ,  5-C ) :   1.2320 B(  0-C ,  6-C ) :   1.1106
B(  1-C ,  2-C ) :   1.5904 B(  1-C , 10-H ) :   0.9925 B(  2-C ,  3-C ) :   1.0393
B(  2-C , 11-H ) :   0.9604 B(  3-C ,  4-C ) :   1.0403 B(  3-C , 14-N ) :   0.7263
B(  3-C , 17-H ) :   0.8085 B(  4-C ,  5-C ) :   1.5786 B(  4-C , 12-H ) :   0.9593
B(  5-C , 13-H ) :   0.9887 B(  6-C ,  7-H ) :   0.9577 B(  6-C ,  8-H ) :   0.9163
B(  6-C ,  9-H ) :   0.9176 B( 14-N , 15-O ) :   1.6023 B( 14-N , 16-O ) :   1.5995
B( 15-O , 16-O ) :   0.2950

Dispersion correction           -0.027030545
FINAL SINGLE POINT ENERGY      -475.762827276960

DIPOLE MOMENT
-------------
                                X             Y             Z
Electronic contribution:      1.16550      -2.11872     -10.00384
Nuclear contribution   :     -1.93396       2.25224      12.67638
                        -----------------------------------------
Total Dipole Moment    :     -0.76846       0.13352       2.67254
                        -----------------------------------------
Magnitude (a.u.)       :      2.78403
Magnitude (Debye)      :      7.07645

Dispersion correction in the Hessian             ... Starting D4

VIBRATIONAL FREQUENCIES
-----------------------

Scaling factor for frequencies =  1.000000000  (already applied!)

   0:         0.00 cm**-1
   1:         0.00 cm**-1
   2:         0.00 cm**-1
   3:         0.00 cm**-1
   4:         0.00 cm**-1
   5:         0.00 cm**-1
   6:       -46.96 cm**-1 ***imaginary mode***
   7:        46.38 cm**-1
   8:        68.56 cm**-1
   9:       204.88 cm**-1
  10:       210.52 cm**-1
  11:       320.50 cm**-1
  12:       348.74 cm**-1
  13:       366.17 cm**-1
  14:       486.90 cm**-1
  15:       492.83 cm**-1
  16:       571.73 cm**-1
  17:       604.55 cm**-1
  18:       631.33 cm**-1
  19:       731.15 cm**-1
  20:       784.16 cm**-1
  21:       796.70 cm**-1
  22:       842.34 cm**-1
  23:       874.11 cm**-1
  24:       912.21 cm**-1
  25:       979.86 cm**-1
  26:       994.72 cm**-1
  27:      1012.09 cm**-1
  28:      1021.16 cm**-1
  29:      1046.42 cm**-1
  30:      1074.64 cm**-1
  31:      1099.52 cm**-1
  32:      1141.09 cm**-1
  33:      1199.34 cm**-1
  34:      1252.47 cm**-1
  35:      1305.56 cm**-1
  36:      1336.21 cm**-1
  37:      1385.30 cm**-1
  38:      1403.50 cm**-1
  39:      1420.42 cm**-1
  40:      1446.24 cm**-1
  41:      1475.30 cm**-1
  42:      1503.11 cm**-1
  43:      1557.51 cm**-1
  44:      1668.72 cm**-1
  45:      1783.17 cm**-1
  46:      2943.84 cm**-1
  47:      3010.43 cm**-1
  48:      3067.30 cm**-1
  49:      3167.57 cm**-1
  50:      3201.00 cm**-1
  51:      3205.49 cm**-1
  52:      3215.59 cm**-1
  53:      3217.67 cm**-1

IR SPECTRUM
-----------

 Mode   freq       eps      Int      T**2         TX        TY        TZ
       cm**-1   L/(mol*cm) km/mol    a.u.
----------------------------------------------------------------------------
  7:     46.38   0.000001    0.01  0.000009  (-0.001877 -0.001647  0.001694)
  8:     68.56   0.000752    3.80  0.003424  (-0.018421 -0.032163 -0.045277)
  9:    204.88   0.000651    3.29  0.000992  ( 0.018146 -0.025453  0.003852)
 10:    210.52   0.000392    1.98  0.000581  ( 0.014096  0.011260  0.015991)
 11:    320.50   0.002341   11.83  0.002280  (-0.008355  0.007542  0.046401)
 12:    348.74   0.000076    0.38  0.000068  (-0.002506  0.005889 -0.005204)
 13:    366.17   0.000005    0.03  0.000004  (-0.000021  0.001735 -0.001161)
 14:    486.90   0.000352    1.78  0.000226  (-0.013076 -0.005491  0.004956)
 15:    492.83   0.000205    1.04  0.000130  ( 0.001225  0.010048 -0.005231)
 16:    571.73   0.001619    8.18  0.000884  ( 0.016184  0.010350 -0.022686)
 17:    604.55   0.001078    5.45  0.000557  ( 0.016684 -0.016309  0.003495)
 18:    631.33   0.005859   29.61  0.002896  (-0.033297 -0.023011  0.035468)
 19:    731.15   0.004629   23.39  0.001976  ( 0.030533  0.026212 -0.018878)
 20:    784.16   0.003868   19.55  0.001539  (-0.004159  0.007049  0.038370)
 21:    796.70   0.000299    1.51  0.000117  ( 0.007927 -0.001472  0.007208)
 22:    842.34   0.040033  202.31  0.014831  (-0.036294  0.001980  0.116233)
 23:    874.11   0.002030   10.26  0.000725  ( 0.012100  0.017027  0.016984)
 24:    912.21   0.025517  128.95  0.008729  (-0.012073  0.016620  0.091145)
 25:    979.86   0.003890   19.66  0.001239  ( 0.006450  0.002644  0.034499)
 26:    994.72   0.000662    3.34  0.000208  (-0.004858  0.011238  0.007597)
 27:   1012.09   0.000903    4.56  0.000278  ( 0.004727  0.015977 -0.000929)
 28:   1021.16   0.004792   24.22  0.001464  ( 0.027344  0.013596 -0.023063)
 29:   1046.42   0.002469   12.48  0.000736  ( 0.004186  0.012775  0.023570)
 30:   1074.64   0.001422    7.19  0.000413  ( 0.013108 -0.015254 -0.002931)
 31:   1099.52   0.017720   89.55  0.005029  ( 0.018132 -0.002929 -0.068498)
 32:   1141.09   0.001745    8.82  0.000477  ( 0.012347 -0.016497 -0.007257)
 33:   1199.34   0.006511   32.91  0.001694  (-0.000084 -0.016993 -0.037490)
 34:   1252.47   0.005793   29.27  0.001443  ( 0.005286 -0.012041 -0.035642)
 35:   1305.56   0.004925   24.89  0.001177  ( 0.020397 -0.026026 -0.009159)
 36:   1336.21   0.017233   87.09  0.004025  (-0.014061  0.033447  0.052040)
 37:   1385.30   0.000800    4.04  0.000180  (-0.000510  0.003820  0.012860)
 38:   1403.50   0.042060  212.55  0.009352  (-0.027174 -0.000838  0.092805)
 39:   1420.42   0.002934   14.83  0.000645  (-0.017864 -0.017501  0.004373)
 40:   1446.24   0.004638   23.44  0.001001  ( 0.020179 -0.020407 -0.013309)
 41:   1475.30   0.026282  132.82  0.005559  (-0.000442 -0.010483 -0.073819)
 42:   1503.11   0.006996   35.36  0.001453  ( 0.025777 -0.027999 -0.002033)
 43:   1557.51   0.012903   65.21  0.002585  ( 0.034936 -0.036233  0.007206)
 44:   1668.72   0.045183  228.34  0.008450  ( 0.006555  0.033050  0.085524)
 45:   1783.17   0.050951  257.48  0.008917  ( 0.067141 -0.063053  0.020810)
 46:   2943.84   0.012668   64.02  0.001343  (-0.020976 -0.026199 -0.014712)
 47:   3010.43   0.012454   62.94  0.001291  ( 0.002823 -0.014786 -0.032625)
 48:   3067.30   0.001339    6.77  0.000136  ( 0.008317  0.007710 -0.002755)
 49:   3167.57   0.002044   10.33  0.000201  (-0.001151  0.006138  0.012742)
 50:   3201.00   0.000724    3.66  0.000071  (-0.000346 -0.002686 -0.007956)
 51:   3205.49   0.001124    5.68  0.000109  (-0.002355  0.005532  0.008560)
 52:   3215.59   0.006464   32.67  0.000627  ( 0.016988 -0.015919  0.009237)
 53:   3217.67   0.001633    8.25  0.000158  ( 0.005456 -0.007031 -0.008896)

--------------------------
THERMOCHEMISTRY AT 298.15K
--------------------------

Temperature         ... 298.15 K
Pressure            ... 1.00 atm
Total Mass          ... 138.15 AMU

Throughout the following assumptions are being made:
  (1) The electronic state is orbitally nondegenerate
  (2) There are no thermally accessible electronically excited states
  (3) Hindered rotations indicated by low frequency modes are not
      treated as such but are treated as vibrations and this may
      cause some error
  (4) All equations used are the standard statistical mechanics
      equations for an ideal gas
  (5) All vibrations are strictly harmonic

freq.      46.38  E(vib)   ...       0.53
freq.      68.56  E(vib)   ...       0.50
freq.     204.88  E(vib)   ...       0.35
freq.     210.52  E(vib)   ...       0.34
freq.     320.50  E(vib)   ...       0.25
freq.     348.74  E(vib)   ...       0.23
freq.     366.17  E(vib)   ...       0.22
freq.     486.90  E(vib)   ...       0.15
freq.     492.83  E(vib)   ...       0.14
freq.     571.73  E(vib)   ...       0.11
freq.     604.55  E(vib)   ...       0.10
freq.     631.33  E(vib)   ...       0.09
freq.     731.15  E(vib)   ...       0.06
freq.     784.16  E(vib)   ...       0.05
freq.     796.70  E(vib)   ...       0.05
freq.     842.34  E(vib)   ...       0.04
freq.     874.11  E(vib)   ...       0.04
freq.     912.21  E(vib)   ...       0.03
freq.     979.86  E(vib)   ...       0.02
freq.     994.72  E(vib)   ...       0.02
freq.    1012.09  E(vib)   ...       0.02
freq.    1021.16  E(vib)   ...       0.02
freq.    1046.42  E(vib)   ...       0.02
freq.    1074.64  E(vib)   ...       0.02
freq.    1099.52  E(vib)   ...       0.02
freq.    1141.09  E(vib)   ...       0.01
freq.    1199.34  E(vib)   ...       0.01
freq.    1252.47  E(vib)   ...       0.01
freq.    1305.56  E(vib)   ...       0.01
freq.    1336.21  E(vib)   ...       0.01
freq.    1385.30  E(vib)   ...       0.00
freq.    1403.50  E(vib)   ...       0.00
freq.    1420.42  E(vib)   ...       0.00
freq.    1446.24  E(vib)   ...       0.00
freq.    1475.30  E(vib)   ...       0.00
freq.    1503.11  E(vib)   ...       0.00
freq.    1557.51  E(vib)   ...       0.00
freq.    1668.72  E(vib)   ...       0.00
freq.    1783.17  E(vib)   ...       0.00
freq.    2943.84  E(vib)   ...       0.00
freq.    3010.43  E(vib)   ...       0.00
freq.    3067.30  E(vib)   ...       0.00
freq.    3167.57  E(vib)   ...       0.00
freq.    3201.00  E(vib)   ...       0.00
freq.    3205.49  E(vib)   ...       0.00
freq.    3215.59  E(vib)   ...       0.00
freq.    3217.67  E(vib)   ...       0.00

------------
INNER ENERGY
------------

The inner energy is: U= E(el) + E(ZPE) + E(vib) + E(rot) + E(trans)
    E(el)   - is the total energy from the electronic structure calculation
              = E(kin-el) + E(nuc-el) + E(el-el) + E(nuc-nuc)
    E(ZPE)  - the the zero temperature vibrational energy from the frequency calculation
    E(vib)  - the the finite temperature correction to E(ZPE) due to population
              of excited vibrational states
    E(rot)  - is the rotational thermal energy
    E(trans)- is the translational thermal energy

Summary of contributions to the inner energy U:
Electronic energy                ...   -475.76282728 Eh
Zero point energy                ...      0.13994562 Eh      87.82 kcal/mol
Thermal vibrational correction   ...      0.00556871 Eh       3.49 kcal/mol
Thermal rotational correction    ...      0.00141627 Eh       0.89 kcal/mol
Thermal translational correction ...      0.00141627 Eh       0.89 kcal/mol
-----------------------------------------------------------------------
Total thermal energy                   -475.61448040 Eh

Summary of corrections to the electronic energy:
(perhaps to be used in another calculation)
Total thermal correction                  0.00840126 Eh       5.27 kcal/mol
Non-thermal (ZPE) correction              0.13994562 Eh      87.82 kcal/mol
-----------------------------------------------------------------------
Total correction                          0.14834688 Eh      93.09 kcal/mol

--------
ENTHALPY
--------

The enthalpy is H = U + kB*T
                kB is Boltzmann's constant
Total free energy                 ...   -475.61448040 Eh
Thermal Enthalpy correction       ...      0.00094421 Eh       0.59 kcal/mol
-----------------------------------------------------------------------
Total Enthalpy                    ...   -475.61353619 Eh

Note: Only C1 symmetry has been detected, increase convergence thresholds
      if your molecule has a higher symmetry. Symmetry factor of 1.0 is
      used for the rotational entropy correction.

Note: Rotational entropy computed according to Herzberg
Infrared and Raman Spectra, Chapter V,1, Van Nostrand Reinhold, 1945
Point Group:  C1, Symmetry Number:   1
Rotational constants in cm-1:     0.112592     0.027775     0.023284

Vibrational entropy computed according to the QRRHO of S. Grimme
Chem.Eur.J. 2012 18 9955

-------
ENTROPY
-------

The entropy contributions are T*S = T*(S(el)+S(vib)+S(rot)+S(trans))
     S(el)   - electronic entropy
     S(vib)  - vibrational entropy
     S(rot)  - rotational entropy
     S(trans)- translational entropy
The entropies will be listed as multiplied by the temperature to get
units of energy

Electronic entropy                ...      0.00000000 Eh      0.00 kcal/mol
Vibrational entropy               ...      0.00928960 Eh      5.83 kcal/mol
Rotational entropy                ...      0.01400869 Eh      8.79 kcal/mol
Translational entropy             ...      0.01932890 Eh     12.13 kcal/mol
-----------------------------------------------------------------------
Final entropy term                ...      0.04262719 Eh     26.75 kcal/mol

In case the symmetry of your molecule has not been determined correctly
or in case you have a reason to use a different symmetry number we print
out the resulting rotational entropy values for sn=1,12 :
 --------------------------------------------------------
|  sn= 1 | S(rot)=       0.01400869 Eh      8.79 kcal/mol|
|  sn= 2 | S(rot)=       0.01335424 Eh      8.38 kcal/mol|
|  sn= 3 | S(rot)=       0.01297140 Eh      8.14 kcal/mol|
|  sn= 4 | S(rot)=       0.01269978 Eh      7.97 kcal/mol|
|  sn= 5 | S(rot)=       0.01248909 Eh      7.84 kcal/mol|
|  sn= 6 | S(rot)=       0.01231695 Eh      7.73 kcal/mol|
|  sn= 7 | S(rot)=       0.01217140 Eh      7.64 kcal/mol|
|  sn= 8 | S(rot)=       0.01204532 Eh      7.56 kcal/mol|
|  sn= 9 | S(rot)=       0.01193411 Eh      7.49 kcal/mol|
|  sn=10 | S(rot)=       0.01183464 Eh      7.43 kcal/mol|
|  sn=11 | S(rot)=       0.01174465 Eh      7.37 kcal/mol|
|  sn=12 | S(rot)=       0.01166249 Eh      7.32 kcal/mol|
 --------------------------------------------------------

-------------------

                             ****ORCA TERMINATED NORMALLY****
TOTAL RUN TIME: 0 days 10 hours 2 minutes 7 seconds 682 msec
