                         Program Version 5.0.4 -  RELEASE  -
|  1> !B3LYP DEF2-SVP OPT FREQ D4 SOSCF
|  2>
|  3> * xyz 1 1
|  4>    C        0.27582        0.52998        2.84266
|  5>    C       -0.35157        0.79615        1.60448
|  6>    C       -0.12078       -0.01685        0.51150
|  7>    C        0.74244       -1.12480        0.62897
|  8>    C        1.36900       -1.40955        1.85544
|  9>    C        1.14036       -0.59442        2.94449
| 10>    C        0.05086        1.40742        4.02708
| 11>    H        1.00033        1.83494        4.37531
| 12>    H       -0.34036        0.82500        4.87194
| 13>    H       -0.63815        2.22455        3.81112
| 14>    H       -1.01856        1.64970        1.52274
| 15>    H       -0.60221        0.19424       -0.43775
| 16>    H        0.92615       -1.76042       -0.23079
| 17>    H        2.03108       -2.26616        1.94013
| 18>    H        1.62365       -0.80274        3.89458
| 19>    N       -2.35336       -0.61957      -11.06298
| 20>    O       -2.02878       -0.10889       -9.98053
| 21>    O       -1.52933       -0.92952      -12.58886
| 22> **                         ****END OF INPUT****
 Total Charge           Charge          ....    1
 Multiplicity           Mult            ....    1
 Number of Electrons    NEL             ....   72
Dispersion correction           -0.021311031
FINAL SINGLE POINT ENERGY      -475.566023085279
Dispersion correction            ... Starting D4
Dispersion correction           -0.021362236
FINAL SINGLE POINT ENERGY      -475.613718917589
Dispersion correction            ... Starting D4
Dispersion correction           -0.021380141
FINAL SINGLE POINT ENERGY      -475.647073655409
Dispersion correction            ... Starting D4
FINAL SINGLE POINT ENERGY      -475.680838324446
FINAL SINGLE POINT ENERGY      -475.707641866924
FINAL SINGLE POINT ENERGY      -475.718918665096
FINAL SINGLE POINT ENERGY      -475.720555219414
FINAL SINGLE POINT ENERGY      -475.720858635566
FINAL SINGLE POINT ENERGY      -475.721022762396
FINAL SINGLE POINT ENERGY      -475.721074723013
FINAL SINGLE POINT ENERGY      -475.721367664640
FINAL SINGLE POINT ENERGY      -475.721367732932
FINAL SINGLE POINT ENERGY      -475.721368693367
FINAL SINGLE POINT ENERGY      -475.721369579373
FINAL SINGLE POINT ENERGY      -475.721372381490
FINAL SINGLE POINT ENERGY      -475.721372808672
FINAL SINGLE POINT ENERGY      -475.721388165896
Dispersion correction           -0.021399827
FINAL SINGLE POINT ENERGY      -475.721406253238
Dispersion correction            ... Starting D4
Dispersion correction           -0.021400055
FINAL SINGLE POINT ENERGY      -475.721431728102
Dispersion correction            ... Starting D4
                    ***********************HURRAY********************

CARTESIAN COORDINATES (ANGSTROEM)
---------------------------------
  C      0.315041    0.537160    3.000486
  C     -0.354988    0.853363    1.791141
  C     -0.164338    0.082073    0.654519
  C      0.703462   -1.029753    0.695005
  C      1.377864   -1.360075    1.887990
  C      1.186872   -0.589196    3.022381
  C      0.114568    1.351236    4.234314
  H      1.083521    1.669399    4.658536
  H     -0.372214    0.743525    5.020790
  H     -0.505266    2.239714    4.053694
  H     -1.025103    1.715799    1.764049
  H     -0.683965    0.332059   -0.273096
  H      0.854818   -1.635921   -0.201473
  H      2.048463   -2.221689    1.913855
  H      1.707300   -0.839792    3.950261
  N     -2.211112   -0.751111  -11.869311
  O     -2.016120   -0.320234  -10.812896
  O     -1.882212   -0.947498  -12.960716

 Multiplicity           Mult            ....    1
 Number of Electrons    NEL             ....   72
 Basis Dimension        Dim             ....  180

ORBITAL ENERGIES
----------------

  NO   OCC          E(Eh)            E(eV)
   0   2.0000     -19.475240      -529.9482
   1   2.0000     -19.475066      -529.9435
   2   2.0000     -14.798015      -402.6745
   3   2.0000     -10.333860      -281.1986
   4   2.0000     -10.324015      -280.9307
   5   2.0000     -10.311761      -280.5973
   6   2.0000     -10.310869      -280.5730
   7   2.0000     -10.309324      -280.5310
   8   2.0000     -10.309241      -280.5287
   9   2.0000     -10.293203      -280.0923
  10   2.0000      -1.506341       -40.9896
  11   2.0000      -1.383871       -37.6570
  12   2.0000      -0.970305       -26.4033
  13   2.0000      -0.883182       -24.0326
  14   2.0000      -0.858030       -23.3482
  15   2.0000      -0.841836       -22.9075
  16   2.0000      -0.795764       -21.6538
  17   2.0000      -0.791212       -21.5300
  18   2.0000      -0.790890       -21.5212
  19   2.0000      -0.770786       -20.9741
  20   2.0000      -0.717115       -19.5137
  21   2.0000      -0.695766       -18.9328
  22   2.0000      -0.624752       -17.0004
  23   2.0000      -0.592334       -16.1182
  24   2.0000      -0.587775       -15.9942
  25   2.0000      -0.581474       -15.8227
  26   2.0000      -0.564238       -15.3537
  27   2.0000      -0.538947       -14.6655
  28   2.0000      -0.528070       -14.3695
  29   2.0000      -0.525658       -14.3039
  30   2.0000      -0.493538       -13.4299
  31   2.0000      -0.470306       -12.7977
  32   2.0000      -0.464649       -12.6437
  33   2.0000      -0.456040       -12.4095
  34   2.0000      -0.375416       -10.2156
  35   2.0000      -0.352918        -9.6034
  36   0.0000      -0.345429        -9.3996
  37   0.0000      -0.269339        -7.3291
  38   0.0000      -0.131578        -3.5804
  39   0.0000      -0.122036        -3.3208
  40   0.0000      -0.035591        -0.9685

MULLIKEN ATOMIC CHARGES
-----------------------
   0 C :   -0.040599
   1 C :    0.022108
   2 C :    0.040604
   3 C :    0.054623
   4 C :    0.037373
   5 C :    0.024983
   6 C :    0.066200
   7 H :    0.063273
   8 H :    0.069569
   9 H :    0.040889
  10 H :    0.012490
  11 H :    0.021581
  12 H :    0.031464
  13 H :    0.026940
  14 H :    0.015204
  15 N :    0.422286
  16 O :    0.042189
  17 O :    0.048823
Sum of atomic charges:    1.0000000

LOEWDIN ATOMIC CHARGES
----------------------
   0 C :    0.053723
   1 C :    0.001322
   2 C :    0.007910
   3 C :    0.056898
   4 C :    0.002374
   5 C :    0.013199
   6 C :   -0.034950
   7 H :    0.058679
   8 H :    0.063674
   9 H :    0.042031
  10 H :    0.042174
  11 H :    0.044258
  12 H :    0.045610
  13 H :    0.046307
  14 H :    0.043493
  15 N :    0.329049
  16 O :    0.089015
  17 O :    0.095233

  Mayer bond orders larger than 0.100000
B(  0-C ,  1-C ) :   1.2940 B(  0-C ,  5-C ) :   1.2571 B(  0-C ,  6-C ) :   1.0899
B(  0-C , 15-N ) :   0.1007 B(  1-C ,  2-C ) :   1.4392 B(  1-C , 10-H ) :   0.9872
B(  2-C ,  3-C ) :   1.2892 B(  2-C , 11-H ) :   0.9847 B(  3-C ,  4-C ) :   1.2995
B(  3-C , 12-H ) :   0.9848 B(  3-C , 15-N ) :   0.1078 B(  4-C ,  5-C ) :   1.4518
B(  4-C , 13-H ) :   0.9859 B(  5-C , 14-H ) :   0.9913 B(  6-C ,  7-H ) :   0.9354
B(  6-C ,  8-H ) :   0.9281 B(  6-C ,  9-H ) :   0.9591 B( 15-N , 16-O ) :   1.8008
B( 15-N , 17-O ) :   1.8066 B( 16-O , 17-O ) :   0.3864

Dispersion correction           -0.021399739
FINAL SINGLE POINT ENERGY      -475.721432011991

DIPOLE MOMENT
-------------
                                X             Y             Z
Electronic contribution:     -6.58834      -3.77540     -42.50583
Nuclear contribution   :      5.68566       3.52925      37.84352
                        -----------------------------------------
Total Dipole Moment    :     -0.90268      -0.24614      -4.66231
                        -----------------------------------------
Magnitude (a.u.)       :      4.75527
Magnitude (Debye)      :     12.08693

Dispersion correction in the Hessian             ... Starting D4

VIBRATIONAL FREQUENCIES
-----------------------

Scaling factor for frequencies =  1.000000000  (already applied!)

   0:         0.00 cm**-1
   1:         0.00 cm**-1
   2:         0.00 cm**-1
   3:         0.00 cm**-1
   4:         0.00 cm**-1
   5:         0.00 cm**-1
   6:       -11.04 cm**-1 ***imaginary mode***
   7:        -3.92 cm**-1 ***imaginary mode***
   8:        -2.14 cm**-1 ***imaginary mode***
   9:         5.72 cm**-1
  10:         5.90 cm**-1
  11:        10.79 cm**-1
  12:        19.73 cm**-1
  13:       189.23 cm**-1
  14:       347.33 cm**-1
  15:       389.99 cm**-1
  16:       454.50 cm**-1
  17:       518.31 cm**-1
  18:       562.32 cm**-1
  19:       567.61 cm**-1
  20:       650.94 cm**-1
  21:       754.47 cm**-1
  22:       795.41 cm**-1
  23:       833.30 cm**-1
  24:       933.17 cm**-1
  25:       979.97 cm**-1
  26:      1008.22 cm**-1
  27:      1013.41 cm**-1
  28:      1020.02 cm**-1
  29:      1028.88 cm**-1
  30:      1033.85 cm**-1
  31:      1101.74 cm**-1
  32:      1157.11 cm**-1
  33:      1195.03 cm**-1
  34:      1247.81 cm**-1
  35:      1314.58 cm**-1
  36:      1363.38 cm**-1
  37:      1372.78 cm**-1
  38:      1387.59 cm**-1
  39:      1421.95 cm**-1
  40:      1428.66 cm**-1
  41:      1457.64 cm**-1
  42:      1498.08 cm**-1
  43:      1516.04 cm**-1
  44:      1670.27 cm**-1
  45:      2141.33 cm**-1
  46:      3006.14 cm**-1
  47:      3065.71 cm**-1
  48:      3145.32 cm**-1
  49:      3188.78 cm**-1
  50:      3191.98 cm**-1
  51:      3199.22 cm**-1
  52:      3207.32 cm**-1
  53:      3213.55 cm**-1

IR SPECTRUM
-----------

 Mode   freq       eps      Int      T**2         TX        TY        TZ
       cm**-1   L/(mol*cm) km/mol    a.u.
----------------------------------------------------------------------------
  9:      5.72   0.000086    0.43  0.004675  ( 0.029920  0.042373 -0.044549)
 10:      5.90   0.000171    0.87  0.009051  (-0.031019  0.004210 -0.089838)
 11:     10.79   0.000293    1.48  0.008476  ( 0.085409  0.034352 -0.000997)
 12:     19.73   0.000061    0.31  0.000963  ( 0.013034 -0.025690  0.011543)
 13:    189.23   0.000260    1.32  0.000429  (-0.014777 -0.013183  0.006080)
 14:    347.33   0.001462    7.39  0.001314  (-0.009857  0.003631 -0.034692)
 15:    389.99   0.000001    0.00  0.000001  (-0.000537  0.000553 -0.000278)
 16:    454.50   0.000868    4.39  0.000596  (-0.011975 -0.010148  0.018705)
 17:    518.31   0.226656  1145.42  0.136466  ( 0.059426  0.012855  0.364375)
 18:    562.32   0.846895  4279.86  0.469993  (-0.107398 -0.019234 -0.676822)
 19:    567.61   0.699811  3536.56  0.384747  (-0.090197 -0.025344 -0.613163)
 20:    650.94   0.004330   21.88  0.002076  (-0.035218 -0.026101  0.012418)
 21:    754.47   0.006591   33.31  0.002726  (-0.039983 -0.031727  0.010996)
 22:    795.41   0.003368   17.02  0.001321  ( 0.011013  0.001577  0.034604)
 23:    833.30   0.000031    0.16  0.000012  ( 0.002848  0.001853 -0.000315)
 24:    933.17   0.000563    2.84  0.000188  ( 0.000712  0.001378  0.013632)
 25:    979.97   0.025999  131.39  0.008279  ( 0.014068  0.009929  0.089347)
 26:   1008.22   0.010698   54.06  0.003311  (-0.009871  0.000991 -0.056682)
 27:   1013.41   0.000170    0.86  0.000052  (-0.005146 -0.002538  0.004421)
 28:   1020.02   0.002612   13.20  0.000799  ( 0.016731  0.009533 -0.020695)
 29:   1028.88   0.004677   23.64  0.001419  (-0.008504  0.001791 -0.036647)
 30:   1033.85   0.000254    1.28  0.000077  ( 0.002611  0.001420 -0.008233)
 31:   1101.74   0.004084   20.64  0.001157  ( 0.017314 -0.012833  0.026312)
 32:   1157.11   0.002593   13.10  0.000699  ( 0.003187  0.004420  0.025877)
 33:   1195.03   0.071828  362.99  0.018757  ( 0.023551  0.009303  0.134594)
 34:   1247.81   0.077232  390.30  0.019315  (-0.020848 -0.013691 -0.136722)
 35:   1314.58   0.030108  152.16  0.007147  ( 0.012038  0.011081  0.082943)
 36:   1363.38   0.614827  3107.08  0.140727  ( 0.064660  0.021743  0.368881)
 37:   1372.78   1.215485  6142.56  0.276307  (-0.097643 -0.020935 -0.516076)
 38:   1387.59   0.002350   11.87  0.000528  (-0.005925  0.008615  0.020472)
 39:   1421.95   0.000958    4.84  0.000210  ( 0.005344  0.012115 -0.005900)
 40:   1428.66   0.002011   10.16  0.000439  (-0.020891 -0.001653 -0.000260)
 41:   1457.64   0.004659   23.55  0.000998  (-0.009793  0.008033 -0.028933)
 42:   1498.08   0.022579  114.11  0.004703  ( 0.004603 -0.032028 -0.060469)
 43:   1516.04   0.002362   11.94  0.000486  (-0.013541  0.012335 -0.012277)
 44:   1670.27   0.165145  834.57  0.030855  ( 0.028296  0.014510  0.172752)
 45:   2141.33   0.063099  318.87  0.009196  (-0.006563  0.027764  0.091552)
 46:   3006.14   0.031623  159.81  0.003283  ( 0.007072  0.008032  0.056287)
 47:   3065.71   0.000088    0.44  0.000009  (-0.000450 -0.001648 -0.002454)
 48:   3145.32   0.012096   61.13  0.001200  (-0.000407  0.011478  0.032683)
 49:   3188.78   0.001238    6.26  0.000121  ( 0.001326  0.001882  0.010763)
 50:   3191.98   0.000073    0.37  0.000007  ( 0.000671 -0.001578 -0.002041)
 51:   3199.22   0.002454   12.40  0.000239  ( 0.001171  0.003493  0.015025)
 52:   3207.32   0.000110    0.55  0.000011  ( 0.001963 -0.002438 -0.000926)
 53:   3213.55   0.003169   16.01  0.000308  ( 0.003874 -0.000706  0.017094)

--------------------------
THERMOCHEMISTRY AT 298.15K
--------------------------

Temperature         ... 298.15 K
Pressure            ... 1.00 atm
Total Mass          ... 138.15 AMU

Throughout the following assumptions are being made:
  (1) The electronic state is orbitally nondegenerate
  (2) There are no thermally accessible electronically excited states
  (3) Hindered rotations indicated by low frequency modes are not
      treated as such but are treated as vibrations and this may
      cause some error
  (4) All equations used are the standard statistical mechanics
      equations for an ideal gas
  (5) All vibrations are strictly harmonic

freq.       5.72  E(vib)   ...       0.58
freq.       5.90  E(vib)   ...       0.58
freq.      10.79  E(vib)   ...       0.58
freq.      19.73  E(vib)   ...       0.56
freq.     189.23  E(vib)   ...       0.36
freq.     347.33  E(vib)   ...       0.23
freq.     389.99  E(vib)   ...       0.20
freq.     454.50  E(vib)   ...       0.16
freq.     518.31  E(vib)   ...       0.13
freq.     562.32  E(vib)   ...       0.11
freq.     567.61  E(vib)   ...       0.11
freq.     650.94  E(vib)   ...       0.08
freq.     754.47  E(vib)   ...       0.06
freq.     795.41  E(vib)   ...       0.05
freq.     833.30  E(vib)   ...       0.04
freq.     933.17  E(vib)   ...       0.03
freq.     979.97  E(vib)   ...       0.02
freq.    1008.22  E(vib)   ...       0.02
freq.    1013.41  E(vib)   ...       0.02
freq.    1020.02  E(vib)   ...       0.02
freq.    1028.88  E(vib)   ...       0.02
freq.    1033.85  E(vib)   ...       0.02
freq.    1101.74  E(vib)   ...       0.02
freq.    1157.11  E(vib)   ...       0.01
freq.    1195.03  E(vib)   ...       0.01
freq.    1247.81  E(vib)   ...       0.01
freq.    1314.58  E(vib)   ...       0.01
freq.    1363.38  E(vib)   ...       0.01
freq.    1372.78  E(vib)   ...       0.01
freq.    1387.59  E(vib)   ...       0.00
freq.    1421.95  E(vib)   ...       0.00
freq.    1428.66  E(vib)   ...       0.00
freq.    1457.64  E(vib)   ...       0.00
freq.    1498.08  E(vib)   ...       0.00
freq.    1516.04  E(vib)   ...       0.00
freq.    1670.27  E(vib)   ...       0.00
freq.    2141.33  E(vib)   ...       0.00
freq.    3006.14  E(vib)   ...       0.00
freq.    3065.71  E(vib)   ...       0.00
freq.    3145.32  E(vib)   ...       0.00
freq.    3188.78  E(vib)   ...       0.00
freq.    3191.98  E(vib)   ...       0.00
freq.    3199.22  E(vib)   ...       0.00
freq.    3207.32  E(vib)   ...       0.00
freq.    3213.55  E(vib)   ...       0.00

------------
INNER ENERGY
------------

The inner energy is: U= E(el) + E(ZPE) + E(vib) + E(rot) + E(trans)
    E(el)   - is the total energy from the electronic structure calculation
              = E(kin-el) + E(nuc-el) + E(el-el) + E(nuc-nuc)
    E(ZPE)  - the the zero temperature vibrational energy from the frequency calculation
    E(vib)  - the the finite temperature correction to E(ZPE) due to population
              of excited vibrational states
    E(rot)  - is the rotational thermal energy
    E(trans)- is the translational thermal energy

Summary of contributions to the inner energy U:
Electronic energy                ...   -475.72143201 Eh
Zero point energy                ...      0.13581320 Eh      85.22 kcal/mol
Thermal vibrational correction   ...      0.00655044 Eh       4.11 kcal/mol
Thermal rotational correction    ...      0.00141627 Eh       0.89 kcal/mol
Thermal translational correction ...      0.00141627 Eh       0.89 kcal/mol
-----------------------------------------------------------------------
Total thermal energy                   -475.57623583 Eh

Summary of corrections to the electronic energy:
(perhaps to be used in another calculation)
Total thermal correction                  0.00938299 Eh       5.89 kcal/mol
Non-thermal (ZPE) correction              0.13581320 Eh      85.22 kcal/mol
-----------------------------------------------------------------------
Total correction                          0.14519618 Eh      91.11 kcal/mol

--------
ENTHALPY
--------

The enthalpy is H = U + kB*T
                kB is Boltzmann's constant
Total free energy                 ...   -475.57623583 Eh
Thermal Enthalpy correction       ...      0.00094421 Eh       0.59 kcal/mol
-----------------------------------------------------------------------
Total Enthalpy                    ...   -475.57529162 Eh

Note: Only C1 symmetry has been detected, increase convergence thresholds
      if your molecule has a higher symmetry. Symmetry factor of 1.0 is
      used for the rotational entropy correction.

Note: Rotational entropy computed according to Herzberg
Infrared and Raman Spectra, Chapter V,1, Van Nostrand Reinhold, 1945
Point Group:  C1, Symmetry Number:   1
Rotational constants in cm-1:     0.124550     0.002591     0.002541

Vibrational entropy computed according to the QRRHO of S. Grimme
Chem.Eur.J. 2012 18 9955

-------
ENTROPY
-------

The entropy contributions are T*S = T*(S(el)+S(vib)+S(rot)+S(trans))
     S(el)   - electronic entropy
     S(vib)  - vibrational entropy
     S(rot)  - rotational entropy
     S(trans)- translational entropy
The entropies will be listed as multiplied by the temperature to get
units of energy

Electronic entropy                ...      0.00000000 Eh      0.00 kcal/mol
Vibrational entropy               ...      0.01414220 Eh      8.87 kcal/mol
Rotational entropy                ...      0.01612665 Eh     10.12 kcal/mol
Translational entropy             ...      0.01932890 Eh     12.13 kcal/mol
-----------------------------------------------------------------------
Final entropy term                ...      0.04959775 Eh     31.12 kcal/mol

In case the symmetry of your molecule has not been determined correctly
or in case you have a reason to use a different symmetry number we print
out the resulting rotational entropy values for sn=1,12 :
 --------------------------------------------------------
|  sn= 1 | S(rot)=       0.01612665 Eh     10.12 kcal/mol|
|  sn= 2 | S(rot)=       0.01547219 Eh      9.71 kcal/mol|
|  sn= 3 | S(rot)=       0.01508936 Eh      9.47 kcal/mol|
|  sn= 4 | S(rot)=       0.01481773 Eh      9.30 kcal/mol|
|  sn= 5 | S(rot)=       0.01460705 Eh      9.17 kcal/mol|
|  sn= 6 | S(rot)=       0.01443490 Eh      9.06 kcal/mol|
|  sn= 7 | S(rot)=       0.01428936 Eh      8.97 kcal/mol|
|  sn= 8 | S(rot)=       0.01416328 Eh      8.89 kcal/mol|
|  sn= 9 | S(rot)=       0.01405207 Eh      8.82 kcal/mol|
|  sn=10 | S(rot)=       0.01395259 Eh      8.76 kcal/mol|
|  sn=11 | S(rot)=       0.01386260 Eh      8.70 kcal/mol|
|  sn=12 | S(rot)=       0.01378045 Eh      8.65 kcal/mol|
 --------------------------------------------------------

-------------------
GIBBS FREE ENERGY
-------------------

                             ****ORCA TERMINATED NORMALLY****
TOTAL RUN TIME: 0 days 2 hours 48 minutes 35 seconds 938 msec
