                         Program Version 5.0.4 -  RELEASE  -
|  1> !B3LYP DEF2-SVP OPT FREQ D4
|  2>
|  3> * xyz 1 1
|  4>    C       -6.30101        0.43717       -0.14689
|  5>    C       -7.17526        1.06388       -1.09158
|  6>    C       -7.25752        0.60867       -2.37461
|  7>    C       -6.51626       -0.59644       -2.78936
|  8>    C       -5.56528       -1.16578       -1.81932
|  9>    C       -5.51428       -0.69084       -0.53993
| 10>    C       -6.28550        0.91010        1.25803
| 11>    H       -4.74775        1.10542        1.56526
| 12>    H       -7.08171       -0.57964        2.06359
| 13>    H       -7.47988        2.31099        1.38962
| 14>    H       -7.74199        1.94844       -0.78597
| 15>    H       -7.87944        1.10471       -3.12471
| 16>    H       -4.92304       -1.98420       -2.15681
| 17>    H       -4.82268       -1.13259        0.18081
| 18>    N       -5.89892       -0.45828       -4.24612
| 19>    O       -4.95361       -1.16543       -4.47564
| 20>    O       -6.47357        0.30682       -4.97448
| 21>    H       -7.28218       -1.38815       -2.97751
| 22> **                         ****END OF INPUT****
 Total Charge           Charge          ....    1
 Multiplicity           Mult            ....    1
 Number of Electrons    NEL             ....   72
Dispersion correction           -0.029059745
FINAL SINGLE POINT ENERGY      -475.476356596828
Dispersion correction            ... Starting D4
Dispersion correction           -0.029124620
FINAL SINGLE POINT ENERGY      -475.521098175499
Dispersion correction            ... Starting D4
Dispersion correction           -0.028571649
FINAL SINGLE POINT ENERGY      -475.566345772853
Dispersion correction            ... Starting D4
FINAL SINGLE POINT ENERGY      -475.610722007303
FINAL SINGLE POINT ENERGY      -475.653672095047
FINAL SINGLE POINT ENERGY      -475.692382544862
FINAL SINGLE POINT ENERGY      -475.726099830281
FINAL SINGLE POINT ENERGY      -475.752431691350
FINAL SINGLE POINT ENERGY      -475.761022579692
FINAL SINGLE POINT ENERGY      -475.761796518526
FINAL SINGLE POINT ENERGY      -475.758285923805
FINAL SINGLE POINT ENERGY      -475.762002620416
FINAL SINGLE POINT ENERGY      -475.761225359287
FINAL SINGLE POINT ENERGY      -475.762737665389
FINAL SINGLE POINT ENERGY      -475.762788207540
FINAL SINGLE POINT ENERGY      -475.762822499726
Dispersion correction           -0.027032640
FINAL SINGLE POINT ENERGY      -475.762836565610
Dispersion correction            ... Starting D4
Dispersion correction           -0.027032129
FINAL SINGLE POINT ENERGY      -475.762837783728
Dispersion correction            ... Starting D4
                    ***********************HURRAY********************

CARTESIAN COORDINATES (ANGSTROEM)
---------------------------------
  C     -6.401029    0.392793   -0.130074
  C     -7.244076    1.031678   -1.090141
  C     -7.276035    0.602133   -2.386063
  C     -6.519152   -0.592763   -2.796437
  C     -5.592178   -1.170089   -1.807073
  C     -5.584218   -0.716046   -0.521572
  C     -6.338096    0.884114    1.265221
  H     -5.290358    1.099506    1.545722
  H     -6.659110    0.075490    1.950359
  H     -6.958413    1.771608    1.440124
  H     -7.838133    1.895891   -0.784991
  H     -7.875778    1.108424   -3.147283
  H     -4.941500   -1.984685   -2.135641
  H     -4.923404   -1.174818    0.217933
  N     -5.860261   -0.426837   -4.232649
  O     -4.903488   -1.123443   -4.443974
  O     -6.419211    0.344556   -4.966309
  H     -7.275440   -1.382662   -3.022771

 Multiplicity           Mult            ....    1
 Number of Electrons    NEL             ....   72
 Basis Dimension        Dim             ....  180

ORBITAL ENERGIES
----------------

  NO   OCC          E(Eh)            E(eV)
   0   2.0000     -19.344906      -526.4017
   1   2.0000     -19.344671      -526.3953
   2   2.0000     -14.740042      -401.0969
   3   2.0000     -10.453149      -284.4446
   4   2.0000     -10.449457      -284.3442
   5   2.0000     -10.431660      -283.8599
   6   2.0000     -10.429271      -283.7949
   7   2.0000     -10.405086      -283.1368
   8   2.0000     -10.404767      -283.1281
   9   2.0000     -10.372368      -282.2465
  10   2.0000      -1.407525       -38.3007
  11   2.0000      -1.242540       -33.8112
  12   2.0000      -1.080597       -29.4045
  13   2.0000      -1.003311       -27.3015
  14   2.0000      -0.965717       -26.2785
  15   2.0000      -0.915224       -24.9045
  16   2.0000      -0.831171       -22.6173
  17   2.0000      -0.816926       -22.2297
  18   2.0000      -0.782394       -21.2900
  19   2.0000      -0.737748       -20.0751
  20   2.0000      -0.728189       -19.8150
  21   2.0000      -0.692785       -18.8516
  22   2.0000      -0.684759       -18.6332
  23   2.0000      -0.672406       -18.2971
  24   2.0000      -0.663891       -18.0654
  25   2.0000      -0.640243       -17.4219
  26   2.0000      -0.623763       -16.9735
  27   2.0000      -0.607642       -16.5348
  28   2.0000      -0.577607       -15.7175
  29   2.0000      -0.574530       -15.6338
  30   2.0000      -0.549020       -14.9396
  31   2.0000      -0.526894       -14.3375
  32   2.0000      -0.493227       -13.4214
  33   2.0000      -0.484157       -13.1746
  34   2.0000      -0.473174       -12.8757
  35   2.0000      -0.469897       -12.7865
  36   0.0000      -0.324456        -8.8289
  37   0.0000      -0.230237        -6.2651
  38   0.0000      -0.218251        -5.9389
  39   0.0000      -0.141179        -3.8417
  40   0.0000      -0.110000        -2.9933

MULLIKEN ATOMIC CHARGES
-----------------------
   0 C :   -0.018831
   1 C :    0.050798
   2 C :    0.033728
   3 C :    0.144295
   4 C :    0.031606
   5 C :    0.048058
   6 C :    0.053822
   7 H :    0.100636
   8 H :    0.103413
   9 H :    0.074221
  10 H :    0.056007
  11 H :    0.098637
  12 H :    0.097460
  13 H :    0.054641
  14 N :    0.209596
  15 O :   -0.147001
  16 O :   -0.147978
  17 H :    0.156891
Sum of atomic charges:    1.0000000

LOEWDIN ATOMIC CHARGES
----------------------
   0 C :    0.147554
   1 C :   -0.001806
   2 C :    0.117161
   3 C :    0.000156
   4 C :    0.109388
   5 C :    0.000430
   6 C :   -0.027877
   7 H :    0.082210
   8 H :    0.086187
   9 H :    0.056160
  10 H :    0.064240
  11 H :    0.071307
  12 H :    0.070817
  13 H :    0.063855
  14 N :    0.277781
  15 O :   -0.121865
  16 O :   -0.122994
  17 H :    0.127296

  Mayer bond orders larger than 0.100000
B(  0-C ,  1-C ) :   1.2327 B(  0-C ,  5-C ) :   1.2149 B(  0-C ,  6-C ) :   1.1111
B(  1-C ,  2-C ) :   1.5782 B(  1-C , 10-H ) :   0.9891 B(  2-C ,  3-C ) :   1.0411
B(  2-C , 11-H ) :   0.9593 B(  3-C ,  4-C ) :   1.0384 B(  3-C , 14-N ) :   0.7266
B(  3-C , 17-H ) :   0.8085 B(  4-C ,  5-C ) :   1.5910 B(  4-C , 12-H ) :   0.9604
B(  5-C , 13-H ) :   0.9920 B(  6-C ,  7-H ) :   0.9204 B(  6-C ,  8-H ) :   0.9134
B(  6-C ,  9-H ) :   0.9574 B( 14-N , 15-O ) :   1.6040 B( 14-N , 16-O ) :   1.5977
B( 15-O , 16-O ) :   0.2950

Dispersion correction           -0.027032290
FINAL SINGLE POINT ENERGY      -475.762838138855

DIPOLE MOMENT
-------------
                                X             Y             Z
Electronic contribution:      1.28929      -1.90582     -10.03205
Nuclear contribution   :     -2.07292       1.95370      12.70966
                        -----------------------------------------
Total Dipole Moment    :     -0.78363       0.04789       2.67762
                        -----------------------------------------
Magnitude (a.u.)       :      2.79034
Magnitude (Debye)      :      7.09248

Dispersion correction in the Hessian             ... Starting D4

VIBRATIONAL FREQUENCIES
-----------------------

Scaling factor for frequencies =  1.000000000  (already applied!)

   0:         0.00 cm**-1
   1:         0.00 cm**-1
   2:         0.00 cm**-1
   3:         0.00 cm**-1
   4:         0.00 cm**-1
   5:         0.00 cm**-1
   6:       -35.56 cm**-1 ***imaginary mode***
   7:        47.73 cm**-1
   8:        68.74 cm**-1
   9:       204.46 cm**-1
  10:       210.80 cm**-1
  11:       320.96 cm**-1
  12:       348.85 cm**-1
  13:       366.31 cm**-1
  14:       486.88 cm**-1
  15:       492.54 cm**-1
  16:       572.79 cm**-1
  17:       604.54 cm**-1
  18:       631.28 cm**-1
  19:       730.12 cm**-1
  20:       784.61 cm**-1
  21:       796.74 cm**-1
  22:       842.77 cm**-1
  23:       874.08 cm**-1
  24:       912.40 cm**-1
  25:       980.26 cm**-1
  26:       995.03 cm**-1
  27:      1012.04 cm**-1
  28:      1020.20 cm**-1
  29:      1046.51 cm**-1
  30:      1074.77 cm**-1
  31:      1099.41 cm**-1
  32:      1141.24 cm**-1
  33:      1199.47 cm**-1
  34:      1252.54 cm**-1
  35:      1305.57 cm**-1
  36:      1336.58 cm**-1
  37:      1385.01 cm**-1
  38:      1403.40 cm**-1
  39:      1419.64 cm**-1
  40:      1446.84 cm**-1
  41:      1475.38 cm**-1
  42:      1503.29 cm**-1
  43:      1557.51 cm**-1
  44:      1668.88 cm**-1
  45:      1782.87 cm**-1
  46:      2943.97 cm**-1
  47:      3008.99 cm**-1
  48:      3067.31 cm**-1
  49:      3168.03 cm**-1
  50:      3201.02 cm**-1
  51:      3205.23 cm**-1
  52:      3215.85 cm**-1
  53:      3217.65 cm**-1

IR SPECTRUM
-----------

 Mode   freq       eps      Int      T**2         TX        TY        TZ
       cm**-1   L/(mol*cm) km/mol    a.u.
----------------------------------------------------------------------------
  7:     47.73   0.000003    0.01  0.000019  (-0.001253 -0.002558 -0.003234)
  8:     68.74   0.000739    3.73  0.003353  (-0.017852 -0.031713 -0.045037)
  9:    204.46   0.000621    3.14  0.000948  ( 0.025461 -0.013974  0.010233)
 10:    210.80   0.000445    2.25  0.000659  ( 0.001398  0.022304  0.012630)
 11:    320.96   0.002326   11.76  0.002262  ( 0.008398 -0.005836 -0.046444)
 12:    348.85   0.000078    0.40  0.000070  (-0.006957  0.004105  0.002180)
 13:    366.31   0.000006    0.03  0.000005  (-0.002225  0.000161 -0.000271)
 14:    486.88   0.000359    1.82  0.000230  (-0.012991 -0.005779  0.005302)
 15:    492.54   0.000203    1.03  0.000129  ( 0.001027  0.009807 -0.005597)
 16:    572.79   0.001621    8.19  0.000883  ( 0.018005  0.008831 -0.021933)
 17:    604.54   0.001076    5.44  0.000556  ( 0.015321 -0.016620  0.006678)
 18:    631.28   0.005980   30.22  0.002956  (-0.035137 -0.021902  0.035237)
 19:    730.12   0.004443   22.45  0.001899  ( 0.032349  0.025123 -0.014873)
 20:    784.61   0.003990   20.16  0.001587  (-0.005172  0.008166  0.038644)
 21:    796.74   0.000335    1.69  0.000131  ( 0.002167 -0.010502 -0.004010)
 22:    842.77   0.039299  198.60  0.014552  (-0.037854 -0.000828  0.114535)
 23:    874.08   0.002326   11.76  0.000831  ( 0.011717  0.017484  0.019688)
 24:    912.40   0.025554  129.14  0.008740  (-0.015151  0.015000  0.091026)
 25:    980.26   0.004204   21.24  0.001338  (-0.009775  0.015207  0.031804)
 26:    995.03   0.000579    2.92  0.000182  ( 0.007543 -0.002878  0.010786)
 27:   1012.04   0.000726    3.67  0.000224  (-0.014525 -0.002761 -0.002305)
 28:   1020.20   0.005221   26.38  0.001597  (-0.022263 -0.019295  0.027000)
 29:   1046.51   0.002264   11.44  0.000675  ( 0.004191  0.011725  0.022805)
 30:   1074.77   0.001274    6.44  0.000370  ( 0.013557 -0.011283  0.007677)
 31:   1099.41   0.018037   91.15  0.005120  ( 0.019720 -0.002702 -0.068728)
 32:   1141.24   0.001680    8.49  0.000459  ( 0.012782 -0.008922  0.014708)
 33:   1199.47   0.006486   32.78  0.001687  (-0.003819 -0.011578 -0.039228)
 34:   1252.54   0.005774   29.18  0.001439  ( 0.000682 -0.005485 -0.037524)
 35:   1305.57   0.004936   24.95  0.001180  ( 0.019880 -0.016166  0.022876)
 36:   1336.58   0.017280   87.33  0.004035  (-0.012169 -0.001604 -0.062321)
 37:   1385.01   0.000779    3.94  0.000176  ( 0.002914 -0.001703 -0.012815)
 38:   1403.40   0.042070  212.60  0.009355  (-0.031572  0.000860  0.091418)
 39:   1419.64   0.002810   14.20  0.000618  ( 0.022213  0.011123 -0.000683)
 40:   1446.84   0.004836   24.44  0.001043  (-0.009361  0.017189 -0.025689)
 41:   1475.38   0.026116  131.98  0.005524  ( 0.013343 -0.023140 -0.069357)
 42:   1503.29   0.006969   35.22  0.001447  ( 0.023986 -0.023015  0.018483)
 43:   1557.51   0.012986   65.63  0.002602  ( 0.034261 -0.034000  0.016498)
 44:   1668.88   0.045158  228.21  0.008444  ( 0.004122  0.032549  0.085835)
 45:   1782.87   0.050939  257.42  0.008916  ( 0.065802 -0.063665  0.023086)
 46:   2943.97   0.012640   63.88  0.001340  (-0.021293 -0.025301 -0.015693)
 47:   3008.99   0.012654   63.95  0.001312  (-0.001723 -0.006267 -0.035639)
 48:   3067.31   0.001309    6.62  0.000133  ( 0.008962  0.007138 -0.001384)
 49:   3168.03   0.001967    9.94  0.000194  ( 0.001642  0.002718  0.013554)
 50:   3201.02   0.000668    3.38  0.000065  (-0.000310 -0.002297 -0.007729)
 51:   3205.23   0.001275    6.45  0.000124  ( 0.002938  0.000009  0.010749)
 52:   3215.85   0.006629   33.50  0.000643  ( 0.016891 -0.018136  0.005388)
 53:   3217.65   0.001371    6.93  0.000133  ( 0.002692 -0.004227 -0.010385)

--------------------------
THERMOCHEMISTRY AT 298.15K
--------------------------

Temperature         ... 298.15 K
Pressure            ... 1.00 atm
Total Mass          ... 138.15 AMU

Throughout the following assumptions are being made:
  (1) The electronic state is orbitally nondegenerate
  (2) There are no thermally accessible electronically excited states
  (3) Hindered rotations indicated by low frequency modes are not
      treated as such but are treated as vibrations and this may
      cause some error
  (4) All equations used are the standard statistical mechanics
      equations for an ideal gas
  (5) All vibrations are strictly harmonic

freq.      47.73  E(vib)   ...       0.53
freq.      68.74  E(vib)   ...       0.50
freq.     204.46  E(vib)   ...       0.35
freq.     210.80  E(vib)   ...       0.34
freq.     320.96  E(vib)   ...       0.25
freq.     348.85  E(vib)   ...       0.23
freq.     366.31  E(vib)   ...       0.22
freq.     486.88  E(vib)   ...       0.15
freq.     492.54  E(vib)   ...       0.14
freq.     572.79  E(vib)   ...       0.11
freq.     604.54  E(vib)   ...       0.10
freq.     631.28  E(vib)   ...       0.09
freq.     730.12  E(vib)   ...       0.06
freq.     784.61  E(vib)   ...       0.05
freq.     796.74  E(vib)   ...       0.05
freq.     842.77  E(vib)   ...       0.04
freq.     874.08  E(vib)   ...       0.04
freq.     912.40  E(vib)   ...       0.03
freq.     980.26  E(vib)   ...       0.02
freq.     995.03  E(vib)   ...       0.02
freq.    1012.04  E(vib)   ...       0.02
freq.    1020.20  E(vib)   ...       0.02
freq.    1046.51  E(vib)   ...       0.02
freq.    1074.77  E(vib)   ...       0.02
freq.    1099.41  E(vib)   ...       0.02
freq.    1141.24  E(vib)   ...       0.01
freq.    1199.47  E(vib)   ...       0.01
freq.    1252.54  E(vib)   ...       0.01
freq.    1305.57  E(vib)   ...       0.01
freq.    1336.58  E(vib)   ...       0.01
freq.    1385.01  E(vib)   ...       0.00
freq.    1403.40  E(vib)   ...       0.00
freq.    1419.64  E(vib)   ...       0.00
freq.    1446.84  E(vib)   ...       0.00
freq.    1475.38  E(vib)   ...       0.00
freq.    1503.29  E(vib)   ...       0.00
freq.    1557.51  E(vib)   ...       0.00
freq.    1668.88  E(vib)   ...       0.00
freq.    1782.87  E(vib)   ...       0.00
freq.    2943.97  E(vib)   ...       0.00
freq.    3008.99  E(vib)   ...       0.00
freq.    3067.31  E(vib)   ...       0.00
freq.    3168.03  E(vib)   ...       0.00
freq.    3201.02  E(vib)   ...       0.00
freq.    3205.23  E(vib)   ...       0.00
freq.    3215.85  E(vib)   ...       0.00
freq.    3217.65  E(vib)   ...       0.00

------------
INNER ENERGY
------------

The inner energy is: U= E(el) + E(ZPE) + E(vib) + E(rot) + E(trans)
    E(el)   - is the total energy from the electronic structure calculation
              = E(kin-el) + E(nuc-el) + E(el-el) + E(nuc-nuc)
    E(ZPE)  - the the zero temperature vibrational energy from the frequency calculation
    E(vib)  - the the finite temperature correction to E(ZPE) due to population
              of excited vibrational states
    E(rot)  - is the rotational thermal energy
    E(trans)- is the translational thermal energy

Summary of contributions to the inner energy U:
Electronic energy                ...   -475.76283814 Eh
Zero point energy                ...      0.13995026 Eh      87.82 kcal/mol
Thermal vibrational correction   ...      0.00556464 Eh       3.49 kcal/mol
Thermal rotational correction    ...      0.00141627 Eh       0.89 kcal/mol
Thermal translational correction ...      0.00141627 Eh       0.89 kcal/mol
-----------------------------------------------------------------------
Total thermal energy                   -475.61449070 Eh

Summary of corrections to the electronic energy:
(perhaps to be used in another calculation)
Total thermal correction                  0.00839718 Eh       5.27 kcal/mol
Non-thermal (ZPE) correction              0.13995026 Eh      87.82 kcal/mol
-----------------------------------------------------------------------
Total correction                          0.14834744 Eh      93.09 kcal/mol

--------
ENTHALPY
--------

The enthalpy is H = U + kB*T
                kB is Boltzmann's constant
Total free energy                 ...   -475.61449070 Eh
Thermal Enthalpy correction       ...      0.00094421 Eh       0.59 kcal/mol
-----------------------------------------------------------------------
Total Enthalpy                    ...   -475.61354649 Eh

Note: Only C1 symmetry has been detected, increase convergence thresholds
      if your molecule has a higher symmetry. Symmetry factor of 1.0 is
      used for the rotational entropy correction.

Note: Rotational entropy computed according to Herzberg
Infrared and Raman Spectra, Chapter V,1, Van Nostrand Reinhold, 1945
Point Group:  C1, Symmetry Number:   1
Rotational constants in cm-1:     0.112623     0.027778     0.023287

Vibrational entropy computed according to the QRRHO of S. Grimme
Chem.Eur.J. 2012 18 9955

-------
ENTROPY
-------

The entropy contributions are T*S = T*(S(el)+S(vib)+S(rot)+S(trans))
     S(el)   - electronic entropy
     S(vib)  - vibrational entropy
     S(rot)  - rotational entropy
     S(trans)- translational entropy
The entropies will be listed as multiplied by the temperature to get
units of energy

Electronic entropy                ...      0.00000000 Eh      0.00 kcal/mol
Vibrational entropy               ...      0.00927655 Eh      5.82 kcal/mol
Rotational entropy                ...      0.01400845 Eh      8.79 kcal/mol
Translational entropy             ...      0.01932890 Eh     12.13 kcal/mol
-----------------------------------------------------------------------
Final entropy term                ...      0.04261390 Eh     26.74 kcal/mol

In case the symmetry of your molecule has not been determined correctly
or in case you have a reason to use a different symmetry number we print
out the resulting rotational entropy values for sn=1,12 :
 --------------------------------------------------------
|  sn= 1 | S(rot)=       0.01400845 Eh      8.79 kcal/mol|
|  sn= 2 | S(rot)=       0.01335400 Eh      8.38 kcal/mol|
|  sn= 3 | S(rot)=       0.01297117 Eh      8.14 kcal/mol|
|  sn= 4 | S(rot)=       0.01269954 Eh      7.97 kcal/mol|
|  sn= 5 | S(rot)=       0.01248885 Eh      7.84 kcal/mol|
|  sn= 6 | S(rot)=       0.01231671 Eh      7.73 kcal/mol|
|  sn= 7 | S(rot)=       0.01217116 Eh      7.64 kcal/mol|
|  sn= 8 | S(rot)=       0.01204508 Eh      7.56 kcal/mol|
|  sn= 9 | S(rot)=       0.01193388 Eh      7.49 kcal/mol|
|  sn=10 | S(rot)=       0.01183440 Eh      7.43 kcal/mol|
|  sn=11 | S(rot)=       0.01174441 Eh      7.37 kcal/mol|
|  sn=12 | S(rot)=       0.01166225 Eh      7.32 kcal/mol|
 --------------------------------------------------------

-------------------

                             ****ORCA TERMINATED NORMALLY****
TOTAL RUN TIME: 0 days 2 hours 59 minutes 53 seconds 333 msec
